                         Program Version 5.0.4 -  RELEASE  -
|  1> # avogadro generated ORCA file
|  2> # Geometry Optimization | B3LYP/def2-TZVP
|  3> # [NiCl4]2-
|  4> # Ni +2
|  5> #
|  6> ! Opt B3LYP def2-TZVP FREQ
|  7>
|  8> %maxcore 4096
|  9>
| 10> %pal
| 11>    nprocs 4
| 12> end
| 13>
| 14> * xyz -2 1
| 15>    Ni     0.000000   -0.000000    0.000000
| 16>    Cl    -0.000000   -1.989000   -1.406400
| 17>    Cl     0.000000    1.989000   -1.406400
| 18>    Cl    -1.989000   -0.000000    1.406400
| 19>    Cl     1.989000   -0.000000    1.406400
| 20> *
| 21>
| 22>
| 23>
| 24>                          ****END OF INPUT****
 Total Charge           Charge          ....   -2
 Multiplicity           Mult            ....    1
 Number of Electrons    NEL             ....   98
FINAL SINGLE POINT ENERGY     -3349.071829045236
FINAL SINGLE POINT ENERGY     -3349.075986306864
FINAL SINGLE POINT ENERGY     -3349.086818043000
FINAL SINGLE POINT ENERGY     -3349.095689713141
FINAL SINGLE POINT ENERGY     -3349.102322041955
FINAL SINGLE POINT ENERGY     -3349.106732395390
FINAL SINGLE POINT ENERGY     -3349.109148776944
FINAL SINGLE POINT ENERGY     -3349.109840476737
FINAL SINGLE POINT ENERGY     -3349.110959553520
FINAL SINGLE POINT ENERGY     -3349.110593128656
FINAL SINGLE POINT ENERGY     -3349.111003162852
FINAL SINGLE POINT ENERGY     -3349.111003735171
FINAL SINGLE POINT ENERGY     -3349.111003241671
FINAL SINGLE POINT ENERGY     -3349.111003338740
FINAL SINGLE POINT ENERGY     -3349.111003039373
FINAL SINGLE POINT ENERGY     -3349.111003330535
FINAL SINGLE POINT ENERGY     -3349.111003429860
FINAL SINGLE POINT ENERGY     -3349.111003331994
FINAL SINGLE POINT ENERGY     -3349.111003331880
                    ***********************HURRAY********************

CARTESIAN COORDINATES (ANGSTROEM)
---------------------------------
  Ni     0.000001   -0.000000   -0.000547
  Cl    -0.000001   -2.285762   -0.003010
  Cl    -0.000001    2.285761   -0.003009
  Cl    -2.285759    0.000000    0.003279
  Cl     2.285760    0.000001    0.003287

 Multiplicity           Mult            ....    1
 Number of Electrons    NEL             ....   98
 Basis Dimension        Dim             ....  193

ORBITAL ENERGIES
----------------

  NO   OCC          E(Eh)            E(eV)
   0   2.0000    -299.535582     -8150.7776
   1   2.0000    -101.142486     -2752.2270
   2   2.0000    -101.142477     -2752.2267
   3   2.0000    -101.142474     -2752.2266
   4   2.0000    -101.142474     -2752.2266
   5   2.0000     -35.456014      -964.8072
   6   2.0000     -30.890874      -840.5834
   7   2.0000     -30.890873      -840.5834
   8   2.0000     -30.859545      -839.7309
   9   2.0000      -9.074808      -246.9381
  10   2.0000      -9.074784      -246.9374
  11   2.0000      -9.074777      -246.9372
  12   2.0000      -9.074777      -246.9372
  13   2.0000      -6.833253      -185.9423
  14   2.0000      -6.833253      -185.9423
  15   2.0000      -6.833242      -185.9420
  16   2.0000      -6.833242      -185.9420
  17   2.0000      -6.829662      -185.8445
  18   2.0000      -6.829661      -185.8445
  19   2.0000      -6.829661      -185.8445
  20   2.0000      -6.829658      -185.8445
  21   2.0000      -6.829083      -185.8288
  22   2.0000      -6.829083      -185.8288
  23   2.0000      -6.829082      -185.8288
  24   2.0000      -6.829081      -185.8288
  25   2.0000      -3.696248      -100.5800
  26   2.0000      -2.302298       -62.6487
  27   2.0000      -2.302297       -62.6487
  28   2.0000      -2.246208       -61.1224
  29   2.0000      -0.445061       -12.1107
  30   2.0000      -0.430516       -11.7149
  31   2.0000      -0.430516       -11.7149
  32   2.0000      -0.422661       -11.5012
  33   2.0000      -0.048514        -1.3201
  34   2.0000      -0.032797        -0.8924
  35   2.0000      -0.014283        -0.3887
  36   2.0000      -0.002923        -0.0795
  37   2.0000      -0.002922        -0.0795
  38   2.0000       0.009038         0.2459
  39   2.0000       0.009038         0.2459
  40   2.0000       0.016240         0.4419
  41   2.0000       0.043858         1.1934
  42   2.0000       0.045102         1.2273
  43   2.0000       0.050510         1.3745
  44   2.0000       0.050510         1.3745
  45   2.0000       0.070553         1.9198
  46   2.0000       0.071281         1.9397
  47   2.0000       0.071506         1.9458
  48   2.0000       0.071506         1.9458
  49   0.0000       0.207709         5.6521
  50   0.0000       0.329566         8.9679
  51   0.0000       0.424132        11.5412
  52   0.0000       0.442016        12.0279
  53   0.0000       0.528326        14.3765

MULLIKEN ATOMIC CHARGES
-----------------------
   0 Ni:    0.523756
   1 Cl:   -0.630939
   2 Cl:   -0.630937
   3 Cl:   -0.630939
   4 Cl:   -0.630940
Sum of atomic charges:   -2.0000000

LOEWDIN ATOMIC CHARGES
----------------------
   0 Ni:   -0.902421
   1 Cl:   -0.274395
   2 Cl:   -0.274394
   3 Cl:   -0.274395
   4 Cl:   -0.274395

  Mayer bond orders larger than 0.100000
B(  0-Ni,  1-Cl) :   0.5993 B(  0-Ni,  2-Cl) :   0.5993 B(  0-Ni,  3-Cl) :   0.5993
B(  0-Ni,  4-Cl) :   0.5993

FINAL SINGLE POINT ENERGY     -3349.111003386547

DIPOLE MOMENT
-------------
                                X             Y             Z
Electronic contribution:      0.00000       0.00000      -0.00099
Nuclear contribution   :     -0.00000       0.00000       0.00013
                        -----------------------------------------
Total Dipole Moment    :      0.00000       0.00000      -0.00086
                        -----------------------------------------
Magnitude (a.u.)       :      0.00086
Magnitude (Debye)      :      0.00218

VIBRATIONAL FREQUENCIES
-----------------------

Scaling factor for frequencies =  1.000000000  (already applied!)

   0:         0.00 cm**-1
   1:         0.00 cm**-1
   2:         0.00 cm**-1
   3:         0.00 cm**-1
   4:         0.00 cm**-1
   5:         0.00 cm**-1
   6:        29.32 cm**-1
   7:       166.04 cm**-1
   8:       166.04 cm**-1
   9:       174.12 cm**-1
  10:       178.14 cm**-1
  11:       192.86 cm**-1
  12:       247.47 cm**-1
  13:       293.20 cm**-1
  14:       293.20 cm**-1

IR SPECTRUM
-----------

 Mode   freq       eps      Int      T**2         TX        TY        TZ
       cm**-1   L/(mol*cm) km/mol    a.u.
----------------------------------------------------------------------------
  6:     29.32   0.000000    0.00  0.000000  ( 0.000000 -0.000000 -0.000002)
  7:    166.04   0.000581    2.94  0.001093  ( 0.008229 -0.032017  0.000000)
  8:    166.04   0.000581    2.94  0.001093  ( 0.032017  0.008229  0.000000)
  9:    174.12   0.000000    0.00  0.000000  (-0.000001  0.000001 -0.000000)
 10:    178.14   0.002034   10.28  0.003564  (-0.000000 -0.000000  0.059698)
 11:    192.86   0.000000    0.00  0.000000  ( 0.000000 -0.000000 -0.000426)
 12:    247.47   0.000000    0.00  0.000000  ( 0.000000 -0.000001  0.000034)
 13:    293.20   0.020099  101.57  0.021393  (-0.000672  0.146261  0.000000)
 14:    293.20   0.020099  101.57  0.021392  ( 0.146260  0.000672  0.000000)

--------------------------
THERMOCHEMISTRY AT 298.15K
--------------------------

Temperature         ... 298.15 K
Pressure            ... 1.00 atm
Total Mass          ... 200.51 AMU

Throughout the following assumptions are being made:
  (1) The electronic state is orbitally nondegenerate
  (2) There are no thermally accessible electronically excited states
  (3) Hindered rotations indicated by low frequency modes are not
      treated as such but are treated as vibrations and this may
      cause some error
  (4) All equations used are the standard statistical mechanics
      equations for an ideal gas
  (5) All vibrations are strictly harmonic

freq.      29.32  E(vib)   ...       0.55
freq.     166.04  E(vib)   ...       0.39
freq.     166.04  E(vib)   ...       0.39
freq.     174.12  E(vib)   ...       0.38
freq.     178.14  E(vib)   ...       0.37
freq.     192.86  E(vib)   ...       0.36
freq.     247.47  E(vib)   ...       0.31
freq.     293.20  E(vib)   ...       0.27
freq.     293.20  E(vib)   ...       0.27

------------
INNER ENERGY
------------

The inner energy is: U= E(el) + E(ZPE) + E(vib) + E(rot) + E(trans)
    E(el)   - is the total energy from the electronic structure calculation
              = E(kin-el) + E(nuc-el) + E(el-el) + E(nuc-nuc)
    E(ZPE)  - the the zero temperature vibrational energy from the frequency calculation
    E(vib)  - the the finite temperature correction to E(ZPE) due to population
              of excited vibrational states
    E(rot)  - is the rotational thermal energy
    E(trans)- is the translational thermal energy

Summary of contributions to the inner energy U:
Electronic energy                ...  -3349.11100339 Eh
Zero point energy                ...      0.00396487 Eh       2.49 kcal/mol
Thermal vibrational correction   ...      0.00522869 Eh       3.28 kcal/mol
Thermal rotational correction    ...      0.00141627 Eh       0.89 kcal/mol
Thermal translational correction ...      0.00141627 Eh       0.89 kcal/mol
-----------------------------------------------------------------------
Total thermal energy                  -3349.09897728 Eh

Summary of corrections to the electronic energy:
(perhaps to be used in another calculation)
Total thermal correction                  0.00806123 Eh       5.06 kcal/mol
Non-thermal (ZPE) correction              0.00396487 Eh       2.49 kcal/mol
-----------------------------------------------------------------------
Total correction                          0.01202610 Eh       7.55 kcal/mol

--------
ENTHALPY
--------

The enthalpy is H = U + kB*T
                kB is Boltzmann's constant
Total free energy                 ...  -3349.09897728 Eh
Thermal Enthalpy correction       ...      0.00094421 Eh       0.59 kcal/mol
-----------------------------------------------------------------------
Total Enthalpy                    ...  -3349.09803308 Eh

Note: Only C1 symmetry has been detected, increase convergence thresholds
      if your molecule has a higher symmetry. Symmetry factor of 1.0 is
      used for the rotational entropy correction.

Note: Rotational entropy computed according to Herzberg
Infrared and Raman Spectra, Chapter V,1, Van Nostrand Reinhold, 1945
Point Group:  C1, Symmetry Number:   1
Rotational constants in cm-1:     0.045504     0.045504     0.022752

Vibrational entropy computed according to the QRRHO of S. Grimme
Chem.Eur.J. 2012 18 9955

-------
ENTROPY
-------

The entropy contributions are T*S = T*(S(el)+S(vib)+S(rot)+S(trans))
     S(el)   - electronic entropy
     S(vib)  - vibrational entropy
     S(rot)  - rotational entropy
     S(trans)- translational entropy
The entropies will be listed as multiplied by the temperature to get
units of energy

Electronic entropy                ...      0.00000000 Eh      0.00 kcal/mol
Vibrational entropy               ...      0.00979508 Eh      6.15 kcal/mol
Rotational entropy                ...      0.01421425 Eh      8.92 kcal/mol
Translational entropy             ...      0.01985655 Eh     12.46 kcal/mol
-----------------------------------------------------------------------
Final entropy term                ...      0.04386588 Eh     27.53 kcal/mol

In case the symmetry of your molecule has not been determined correctly
or in case you have a reason to use a different symmetry number we print
out the resulting rotational entropy values for sn=1,12 :
 --------------------------------------------------------
|  sn= 1 | S(rot)=       0.01421425 Eh      8.92 kcal/mol|
|  sn= 2 | S(rot)=       0.01355979 Eh      8.51 kcal/mol|
|  sn= 3 | S(rot)=       0.01317696 Eh      8.27 kcal/mol|
|  sn= 4 | S(rot)=       0.01290534 Eh      8.10 kcal/mol|
|  sn= 5 | S(rot)=       0.01269465 Eh      7.97 kcal/mol|
|  sn= 6 | S(rot)=       0.01252250 Eh      7.86 kcal/mol|
|  sn= 7 | S(rot)=       0.01237696 Eh      7.77 kcal/mol|
|  sn= 8 | S(rot)=       0.01225088 Eh      7.69 kcal/mol|
|  sn= 9 | S(rot)=       0.01213967 Eh      7.62 kcal/mol|
|  sn=10 | S(rot)=       0.01204019 Eh      7.56 kcal/mol|
|  sn=11 | S(rot)=       0.01195020 Eh      7.50 kcal/mol|
|  sn=12 | S(rot)=       0.01186805 Eh      7.45 kcal/mol|
 --------------------------------------------------------

-------------------
GIBBS FREE ENERGY
-------------------

The Gibbs free energy is G = H - T*S

Total enthalpy                    ...  -3349.09803308 Eh
Total entropy correction          ...     -0.04386588 Eh    -27.53 kcal/mol
-----------------------------------------------------------------------
Final Gibbs free energy         ...  -3349.14189895 Eh

For completeness - the Gibbs free energy minus the electronic energy
G-E(el)                           ...     -0.03089557 Eh    -19.39 kcal/mol

                             ****ORCA TERMINATED NORMALLY****
TOTAL RUN TIME: 0 days 0 hours 6 minutes 28 seconds 264 msec
