                         Program Version 5.0.4 -  RELEASE  -
|  1> # avogadro generated ORCA file
|  2> # Geometry Optimization | PBE0/def2-TZVP
|  3> #
|  4> ! Opt PBE0 def2-TZVP
|  5>
|  6> %maxcore 1024
|  7>
|  8> %pal
|  9>    nprocs 4
| 10> end
| 11>
| 12> * xyz -2 1
| 13>    Cu     0.098200    0.101000    0.001800
| 14>    C     -0.306400   -1.498600   -0.001200
| 15>    N     -1.204700   -2.146700   -0.001000
| 16>    C      1.685800    0.550500   -0.000200
| 17>    N      2.696200    0.096500   -0.003200
| 18>    C     -1.084800    1.251200   -0.000000
| 19>    N     -2.189500    1.332200   -0.003000
| 20> *
| 21>
| 22>
| 23>
| 24>                          ****END OF INPUT****
 Total Charge           Charge          ....   -2
 Multiplicity           Mult            ....    1
 Number of Electrons    NEL             ....   70
FINAL SINGLE POINT ENERGY     -1918.460770117649
FINAL SINGLE POINT ENERGY     -1918.514664345244
FINAL SINGLE POINT ENERGY     -1918.551913582140
FINAL SINGLE POINT ENERGY     -1918.582287046171
FINAL SINGLE POINT ENERGY     -1918.606263044000
FINAL SINGLE POINT ENERGY     -1918.622629356939
FINAL SINGLE POINT ENERGY     -1918.632893993587
FINAL SINGLE POINT ENERGY     -1918.639449128829
FINAL SINGLE POINT ENERGY     -1918.643404353387
FINAL SINGLE POINT ENERGY     -1918.645197440023
FINAL SINGLE POINT ENERGY     -1918.652887099497
FINAL SINGLE POINT ENERGY     -1918.652887700330
FINAL SINGLE POINT ENERGY     -1918.652888981896
FINAL SINGLE POINT ENERGY     -1918.652890790878
FINAL SINGLE POINT ENERGY     -1918.652892405276
FINAL SINGLE POINT ENERGY     -1918.652893641774
FINAL SINGLE POINT ENERGY     -1918.652894386955
FINAL SINGLE POINT ENERGY     -1918.652894258229
FINAL SINGLE POINT ENERGY     -1918.652893913009
                    ***********************HURRAY********************

CARTESIAN COORDINATES (ANGSTROEM)
---------------------------------
  Cu    -0.029309   -0.033339   -0.002163
  C     -0.657223   -1.923699   -0.001487
  N     -1.030482   -3.028883    0.000817
  C      1.920678    0.373508   -0.001917
  N      3.064674    0.602691   -0.000121
  C     -1.385610    1.424491   -0.001788
  N     -2.187928    2.271331   -0.000141

 Multiplicity           Mult            ....    1
 Number of Electrons    NEL             ....   70
 Basis Dimension        Dim             ....  231

ORBITAL ENERGIES
----------------

  NO   OCC          E(Eh)            E(eV)
   0   2.0000    -323.012999     -8789.6306
   1   2.0000     -38.616298     -1050.8029
   2   2.0000     -33.783016      -919.2826
   3   2.0000     -33.782991      -919.2819
   4   2.0000     -33.782557      -919.2701
   5   2.0000     -14.041643      -382.0925
   6   2.0000     -14.041113      -382.0781
   7   2.0000     -14.040815      -382.0700
   8   2.0000      -9.909105      -269.6405
   9   2.0000      -9.908425      -269.6220
  10   2.0000      -9.908058      -269.6120
  11   2.0000      -4.034943      -109.7964
  12   2.0000      -2.513012       -68.3825
  13   2.0000      -2.511662       -68.3458
  14   2.0000      -2.511431       -68.3395
  15   2.0000      -0.588199       -16.0057
  16   2.0000      -0.587699       -15.9921
  17   2.0000      -0.587356       -15.9828
  18   2.0000      -0.155795        -4.2394
  19   2.0000      -0.127552        -3.4709
  20   2.0000      -0.127193        -3.4611
  21   2.0000      -0.053939        -1.4678
  22   2.0000      -0.042503        -1.1566
  23   2.0000      -0.042361        -1.1527
  24   2.0000      -0.034195        -0.9305
  25   2.0000      -0.033550        -0.9129
  26   2.0000      -0.031303        -0.8518
  27   2.0000      -0.031260        -0.8506
  28   2.0000      -0.030932        -0.8417
  29   2.0000      -0.023277        -0.6334
  30   2.0000       0.028346         0.7713
  31   2.0000       0.028377         0.7722
  32   2.0000       0.032080         0.8730
  33   2.0000       0.067653         1.8409
  34   2.0000       0.069457         1.8900
  35   0.0000       0.292752         7.9662
  36   0.0000       0.298745         8.1293
  37   0.0000       0.352891         9.6026
  38   0.0000       0.353185         9.6107
  39   0.0000       0.373475        10.1628

MULLIKEN ATOMIC CHARGES
-----------------------
   0 Cu:   -0.082539
   1 C :   -0.508554
   2 N :   -0.134506
   3 C :   -0.497890
   4 N :   -0.136670
   5 C :   -0.504449
   6 N :   -0.135391
Sum of atomic charges:   -2.0000000

LOEWDIN ATOMIC CHARGES
----------------------
   0 Cu:   -0.236139
   1 C :   -0.403994
   2 N :   -0.184169
   3 C :   -0.403611
   4 N :   -0.184032
   5 C :   -0.404003
   6 N :   -0.184052

  Mayer bond orders larger than 0.100000
B(  0-Cu,  1-C ) :   0.7155 B(  0-Cu,  3-C ) :   0.7235 B(  0-Cu,  5-C ) :   0.7194
B(  1-C ,  2-N ) :   2.8576 B(  3-C ,  4-N ) :   2.8616 B(  5-C ,  6-N ) :   2.8599

FINAL SINGLE POINT ENERGY     -1918.652893836371

DIPOLE MOMENT
-------------
                                X             Y             Z
Electronic contribution:      0.08169       0.06656      -0.00785
Nuclear contribution   :     -0.04905      -0.03963       0.00421
                        -----------------------------------------
Total Dipole Moment    :      0.03264       0.02693      -0.00364
                        -----------------------------------------
Magnitude (a.u.)       :      0.04247
Magnitude (Debye)      :      0.10795

Rotational constants in cm-1:     0.061039     0.058967     0.029992
Rotational constants in MHz :  1829.891452  1767.786260   899.151871

                             ****ORCA TERMINATED NORMALLY****
TOTAL RUN TIME: 0 days 0 hours 10 minutes 52 seconds 191 msec
