                         Program Version 5.0.4 -  RELEASE  -
|  1> # input to generate an atomic fitting density for Au
|  2> # this file is used internally by ORCA
|  3> #
|  4> # atomic ground state (S=2): 1s2 2s2 2p6 3s2 3p6 4s2 3d10 4p6 5s2 4d10 5p6 6s1 4f14 5d10
|  5> #
|  6> ! RHF AllowRHF def2-SVP def2/J  NoMulliken NoLoewdin NoMayer NoPrintMOs
|  7>
|  8> %output print[p_atomdensfit] 2 end
|  9>
| 10> %scf
| 11>   guess hcore
| 12>   maxiter 1000
| 13>   maxdisk 500000
| 14>   SCFMode Conventional
| 15>   lshift 1.000000
| 16>   hftyp rohf
| 17>   rohf_case sahf
| 18>   rohf_numop   2
| 19>   rohf_norb[1] 1
| 20>   rohf_nel[1]  1
| 21> end
| 22>
| 23> %basis
| 24>   NewECP 79
| 25>     N_core 60
| 26>     lmax f
| 27>     s 4
| 28>       1      13.2051000000    426.8466792000  2
| 29>       2       6.6025500000     37.0070829000  2
| 30>       3       4.7898200000    -30.4900889000  2
| 31>       4       2.3949100000     -5.1710738000  2
| 32>     p 4
| 33>       1      10.4520200000    261.1995804000  2
| 34>       2       5.2260100000     26.9624960000  2
| 35>       3       4.7898200000    -30.4900889000  2
| 36>       4       2.3949100000     -5.1710738000  2
| 37>     d 4
| 38>       1       7.8511000000    124.7906656000  2
| 39>       2       3.9255500000     16.3007257000  2
| 40>       3       4.7898200000    -30.4900889000  2
| 41>       4       2.3949100000     -5.1710738000  2
| 42>     f 2
| 43>       1       4.7898200000     30.4900889000  2
| 44>       2       2.3949100000      5.1710738000  2
| 45>   end
| 46>   NewGTO 79
| 47>     s 3
| 48>      1      30.0000000000      0.7878815859
| 49>      2      27.0000000000     -1.2632352720
| 50>      3      14.7468243310      1.4544194336
| 51>     s 1
| 52>      1       5.6017248938      1.0000000000
| 53>     s 1
| 54>      1       1.3874162443      1.0000000000
| 55>     s 1
| 56>      1       0.6292303196      1.0000000000
| 57>     s 1
| 58>      1       0.1402751761      1.0000000000
| 59>     s 1
| 60>      1       0.0493794138      1.0000000000
| 61>     p 4
| 62>      1      15.5000000000      0.3283807140
| 63>      2      14.0000000000     -0.5168081730
| 64>      3       6.4227368205      0.6886210803
| 65>      4       1.6595601681     -1.2538261785
| 66>     p 1
| 67>      1       0.7940291399      1.0000000000
| 68>     p 1
| 69>      1       0.3512515540      1.0000000000
| 70>     p 1
| 71>      1       0.0450000000      1.0000000000
| 72>     d 4
| 73>      1       9.5524098656      0.0556208267
| 74>      2       7.2698886937     -0.1298067767
| 75>      3       1.7746496789      0.4398380516
| 76>      4       0.7996054106      0.6483375306
| 77>     d 1
| 78>      1       0.3325227937      1.0000000000
| 79>     d 1
| 80>      1       0.1244513311      1.0000000000
| 81>     f 1
| 82>      1       0.7248200000      1.0000000000
| 83>   end
| 84>   NewAuxGTO 79
| 85>     S 1
| 86>      1 1310.72 1.0
| 87>     S 1
| 88>      1  655.36 1.0
| 89>     S 1
| 90>      1  327.68 1.0
| 91>     S 1
| 92>      1  163.84 1.0
| 93>     S 1
| 94>      1   81.82 1.0
| 95>     S 1
| 96>      1   40.96 1.0
| 97>     S 1
| 98>      1   20.48 1.0
| 99>     S 1
|100>      1   10.24 1.0
|101>     S 1
|102>      1    5.12 1.0
|103>     S 1
|104>      1    2.56 1.0
|105>     S 1
|106>      1    1.28 1.0
|107>     S 1
|108>      1    0.64 1.0
|109>     S 1
|110>      1    0.32 1.0
|111>     S 1
|112>      1    0.16 1.0
|113>     S 1
|114>      1    0.08 1.0
|115>     S 1
|116>      1    0.04 1.0
|117>     S 1
|118>      1    0.02 1.0
|119>     S 1
|120>      1    0.01 1.0
|121>   end
|122> end
|123>
|124> * xyz 0 2
|125> 79  0.0 0.0 0.0
|126> *
|127>
|128>
|129>                          ****END OF INPUT****

CARTESIAN COORDINATES (ANGSTROEM)
---------------------------------
  Au     0.000000    0.000000    0.000000

 Total Charge           Charge          ....    0
 Multiplicity           Mult            ....    2
 Number of Electrons    NEL             ....   19
 Basis Dimension        Dim             ....   40

ORBITAL ENERGIES
----------------

  NO   OCC          E(Eh)            E(eV)
   0   2.0000      -4.688040      -127.5680
   1   2.0000      -2.726327       -74.1871
   2   2.0000      -2.726327       -74.1871
   3   2.0000      -2.726327       -74.1871
   4   2.0000      -0.453437       -12.3387
   5   2.0000      -0.453437       -12.3387
   6   2.0000      -0.453437       -12.3387
   7   2.0000      -0.453437       -12.3387
   8   2.0000      -0.453437       -12.3387
   9   1.0000      -0.290005        -7.8915
  10   0.0000      -0.122897        -3.3442
  11   0.0000      -0.122897        -3.3442
  12   0.0000      -0.122897        -3.3442
  13   0.0000       0.038042         1.0352
  14   0.0000       0.176438         4.8011

FINAL SINGLE POINT ENERGY      -134.788891947598

DIPOLE MOMENT
-------------
                                X             Y             Z
Electronic contribution:      0.00000       0.00000       0.00000
Nuclear contribution   :      0.00000       0.00000       0.00000
                        -----------------------------------------
Total Dipole Moment    :      0.00000       0.00000       0.00000
                        -----------------------------------------
Magnitude (a.u.)       :      0.00000
Magnitude (Debye)      :      0.00000

Rotational constants in cm-1:     0.000000     0.000000     0.000000
Rotational constants in MHz :     0.000000     0.000000     0.000000

                             ****ORCA TERMINATED NORMALLY****
TOTAL RUN TIME: 0 days 0 hours 0 minutes 0 seconds 512 msec
