                         Program Version 5.0.4 -  RELEASE  -
|  1> # avogadro generated ORCA file
|  2> # Geometry Optimization | B3LYP/def2-TZVP
|  3> # Au +3
|  4> #
|  5> ! Opt B3LYP def2-TZVP FREQ
|  6> %maxcore 4096
|  7>
|  8> %pal
|  9>    nprocs 4
| 10> end
| 11>
| 12> * xyz -1 1
| 13>    Au     0.000000   -0.000000   -0.000000
| 14>    Br    -1.767900    1.767700    0.000000
| 15>    Br     1.767900   -1.767700    0.000000
| 16>    Br     1.767700    1.767900   -0.000000
| 17>    Br    -1.767700   -1.767900   -0.000000
| 18> *
| 19>
| 20>
| 21>
| 22>                          ****END OF INPUT****
 Total Charge           Charge          ....   -1
 Multiplicity           Mult            ....    1
 Number of Electrons    NEL             ....  160
FINAL SINGLE POINT ENERGY    -10432.124219307574
FINAL SINGLE POINT ENERGY    -10432.124023063461
FINAL SINGLE POINT ENERGY    -10432.124278849949
                    ***********************HURRAY********************

CARTESIAN COORDINATES (ANGSTROEM)
---------------------------------
  Au    -0.000000    0.000000    0.000000
  Br    -1.759145    1.758945    0.000000
  Br     1.759144   -1.758944    0.000000
  Br     1.758946    1.759143    0.000000
  Br    -1.758944   -1.759144    0.000000

 Multiplicity           Mult            ....    1
 Number of Electrons    NEL             ....  160
 Basis Dimension        Dim             ....  232

ORBITAL ENERGIES
----------------

  NO   OCC          E(Eh)            E(eV)
   0   2.0000    -482.699613    -13134.9242
   1   2.0000    -482.699611    -13134.9242
   2   2.0000    -482.699610    -13134.9241
   3   2.0000    -482.699610    -13134.9241
   4   2.0000     -62.347251     -1696.5550
   5   2.0000     -62.347243     -1696.5547
   6   2.0000     -62.347239     -1696.5546
   7   2.0000     -62.347239     -1696.5546
   8   2.0000     -56.162503     -1528.2594
   9   2.0000     -56.162502     -1528.2594
  10   2.0000     -56.162488     -1528.2590
  11   2.0000     -56.162488     -1528.2590
  12   2.0000     -56.160360     -1528.2011
  13   2.0000     -56.160358     -1528.2010
  14   2.0000     -56.160356     -1528.2010
  15   2.0000     -56.160356     -1528.2010
  16   2.0000     -56.160329     -1528.2003
  17   2.0000     -56.160327     -1528.2002
  18   2.0000     -56.160327     -1528.2002
  19   2.0000     -56.160326     -1528.2002
  20   2.0000      -8.537793      -232.3252
  21   2.0000      -8.537777      -232.3247
  22   2.0000      -8.537772      -232.3246
  23   2.0000      -8.537772      -232.3246
  24   2.0000      -6.366132      -173.2313
  25   2.0000      -6.366131      -173.2312
  26   2.0000      -6.366129      -173.2312
  27   2.0000      -6.366129      -173.2312
  28   2.0000      -6.357183      -172.9877
  29   2.0000      -6.357182      -172.9877
  30   2.0000      -6.357182      -172.9877
  31   2.0000      -6.357182      -172.9877
  32   2.0000      -6.356453      -172.9679
  33   2.0000      -6.356453      -172.9679
  34   2.0000      -6.356453      -172.9679
  35   2.0000      -6.356453      -172.9679
  36   2.0000      -4.111427      -111.8776
  37   2.0000      -2.480759       -67.5049
  38   2.0000      -2.480759       -67.5049
  39   2.0000      -2.480736       -67.5042
  40   2.0000      -2.480733       -67.5042
  41   2.0000      -2.478650       -67.4475
  42   2.0000      -2.478650       -67.4475
  43   2.0000      -2.478648       -67.4474
  44   2.0000      -2.478645       -67.4474
  45   2.0000      -2.477981       -67.4293
  46   2.0000      -2.477973       -67.4291
  47   2.0000      -2.477973       -67.4291
  48   2.0000      -2.477971       -67.4290
  49   2.0000      -2.470656       -67.2300
  50   2.0000      -2.470656       -67.2300
  51   2.0000      -2.470656       -67.2300
  52   2.0000      -2.470654       -67.2299
  53   2.0000      -2.470557       -67.2273
  54   2.0000      -2.470555       -67.2272
  55   2.0000      -2.470555       -67.2272
  56   2.0000      -2.470553       -67.2272
  57   2.0000      -2.292002       -62.3686
  58   2.0000      -2.292002       -62.3686
  59   2.0000      -2.266380       -61.6713
  60   2.0000      -0.622770       -16.9464
  61   2.0000      -0.604518       -16.4498
  62   2.0000      -0.604089       -16.4381
  63   2.0000      -0.604089       -16.4381
  64   2.0000      -0.304168        -8.2768
  65   2.0000      -0.290630        -7.9084
  66   2.0000      -0.289665        -7.8822
  67   2.0000      -0.260828        -7.0975
  68   2.0000      -0.260828        -7.0975
  69   2.0000      -0.209113        -5.6903
  70   2.0000      -0.190408        -5.1813
  71   2.0000      -0.190408        -5.1813
  72   2.0000      -0.166053        -4.5185
  73   2.0000      -0.146816        -3.9951
  74   2.0000      -0.140171        -3.8143
  75   2.0000      -0.136315        -3.7093
  76   2.0000      -0.136315        -3.7093
  77   2.0000      -0.132591        -3.6080
  78   2.0000      -0.132591        -3.6080
  79   2.0000      -0.115094        -3.1319
  80   0.0000      -0.016624        -0.4524
  81   0.0000       0.113488         3.0882
  82   0.0000       0.146113         3.9759
  83   0.0000       0.202170         5.5013
  84   0.0000       0.202170         5.5013

MULLIKEN ATOMIC CHARGES
-----------------------
   0 Au:    0.607760
   1 Br:   -0.401940
   2 Br:   -0.401940
   3 Br:   -0.401940
   4 Br:   -0.401940
Sum of atomic charges:   -1.0000000

LOEWDIN ATOMIC CHARGES
----------------------
   0 Au:   -0.382368
   1 Br:   -0.154408
   2 Br:   -0.154408
   3 Br:   -0.154408
   4 Br:   -0.154408

  Mayer bond orders larger than 0.100000
B(  0-Au,  1-Br) :   0.6647 B(  0-Au,  2-Br) :   0.6647 B(  0-Au,  3-Br) :   0.6647
B(  0-Au,  4-Br) :   0.6647 B(  1-Br,  2-Br) :   0.2090 B(  3-Br,  4-Br) :   0.2090

FINAL SINGLE POINT ENERGY    -10432.124277100642

DIPOLE MOMENT
-------------
                                X             Y             Z
Electronic contribution:     -0.00000       0.00003      -0.00000
Nuclear contribution   :      0.00000      -0.00003       0.00000
                        -----------------------------------------
Total Dipole Moment    :      0.00000      -0.00000      -0.00000
                        -----------------------------------------
Magnitude (a.u.)       :      0.00000
Magnitude (Debye)      :      0.00001

VIBRATIONAL FREQUENCIES
-----------------------

Scaling factor for frequencies =  1.000000000  (already applied!)

   0:         0.00 cm**-1
   1:         0.00 cm**-1
   2:         0.00 cm**-1
   3:         0.00 cm**-1
   4:         0.00 cm**-1
   5:         0.00 cm**-1
   6:        41.09 cm**-1
   7:        94.69 cm**-1
   8:        95.00 cm**-1
   9:        97.15 cm**-1
  10:        97.15 cm**-1
  11:       176.56 cm**-1
  12:       193.58 cm**-1
  13:       231.14 cm**-1
  14:       231.14 cm**-1

IR SPECTRUM
-----------

 Mode   freq       eps      Int      T**2         TX        TY        TZ
       cm**-1   L/(mol*cm) km/mol    a.u.
----------------------------------------------------------------------------
  6:     41.09   0.000000    0.00  0.000000  ( 0.000000  0.000000  0.000000)
  7:     94.69   0.000000    0.00  0.000000  (-0.000001 -0.000001  0.000000)
  8:     95.00   0.000180    0.91  0.000591  ( 0.000000  0.000000 -0.024316)
  9:     97.15   0.000197    1.00  0.000633  (-0.012464 -0.021857 -0.000000)
 10:     97.15   0.000197    1.00  0.000633  (-0.021857  0.012464 -0.000000)
 11:    176.56   0.000000    0.00  0.000000  (-0.000000  0.000000  0.000000)
 12:    193.58   0.000000    0.00  0.000000  (-0.000000  0.000000 -0.000000)
 13:    231.14   0.005839   29.51  0.007884  (-0.060305  0.065170  0.000000)
 14:    231.14   0.005839   29.51  0.007884  ( 0.065170  0.060305  0.000000)

--------------------------
THERMOCHEMISTRY AT 298.15K
--------------------------

Temperature         ... 298.15 K
Pressure            ... 1.00 atm
Total Mass          ... 516.57 AMU

Throughout the following assumptions are being made:
  (1) The electronic state is orbitally nondegenerate
  (2) There are no thermally accessible electronically excited states
  (3) Hindered rotations indicated by low frequency modes are not
      treated as such but are treated as vibrations and this may
      cause some error
  (4) All equations used are the standard statistical mechanics
      equations for an ideal gas
  (5) All vibrations are strictly harmonic

freq.      41.09  E(vib)   ...       0.54
freq.      94.69  E(vib)   ...       0.47
freq.      95.00  E(vib)   ...       0.47
freq.      97.15  E(vib)   ...       0.46
freq.      97.15  E(vib)   ...       0.46
freq.     176.56  E(vib)   ...       0.38
freq.     193.58  E(vib)   ...       0.36
freq.     231.14  E(vib)   ...       0.32
freq.     231.14  E(vib)   ...       0.32

------------
INNER ENERGY
------------

The inner energy is: U= E(el) + E(ZPE) + E(vib) + E(rot) + E(trans)
    E(el)   - is the total energy from the electronic structure calculation
              = E(kin-el) + E(nuc-el) + E(el-el) + E(nuc-nuc)
    E(ZPE)  - the the zero temperature vibrational energy from the frequency calculation
    E(vib)  - the the finite temperature correction to E(ZPE) due to population
              of excited vibrational states
    E(rot)  - is the rotational thermal energy
    E(trans)- is the translational thermal energy

Summary of contributions to the inner energy U:
Electronic energy                ... -10432.12427710 Eh
Zero point energy                ...      0.00286479 Eh       1.80 kcal/mol
Thermal vibrational correction   ...      0.00601944 Eh       3.78 kcal/mol
Thermal rotational correction    ...      0.00141627 Eh       0.89 kcal/mol
Thermal translational correction ...      0.00141627 Eh       0.89 kcal/mol
-----------------------------------------------------------------------
Total thermal energy                 -10432.11256033 Eh

Summary of corrections to the electronic energy:
(perhaps to be used in another calculation)
Total thermal correction                  0.00885199 Eh       5.55 kcal/mol
Non-thermal (ZPE) correction              0.00286479 Eh       1.80 kcal/mol
-----------------------------------------------------------------------
Total correction                          0.01171677 Eh       7.35 kcal/mol

--------
ENTHALPY
--------

The enthalpy is H = U + kB*T
                kB is Boltzmann's constant
Total free energy                 ... -10432.11256033 Eh
Thermal Enthalpy correction       ...      0.00094421 Eh       0.59 kcal/mol
-----------------------------------------------------------------------
Total Enthalpy                    ... -10432.11161612 Eh

Note: Rotational entropy computed according to Herzberg
Infrared and Raman Spectra, Chapter V,1, Van Nostrand Reinhold, 1945
Point Group:  D4h, Symmetry Number:   8
Rotational constants in cm-1:     0.017047     0.017047     0.008523

Vibrational entropy computed according to the QRRHO of S. Grimme
Chem.Eur.J. 2012 18 9955

-------
ENTROPY
-------

The entropy contributions are T*S = T*(S(el)+S(vib)+S(rot)+S(trans))
     S(el)   - electronic entropy
     S(vib)  - vibrational entropy
     S(rot)  - rotational entropy
     S(trans)- translational entropy
The entropies will be listed as multiplied by the temperature to get
units of energy

Electronic entropy                ...      0.00000000 Eh      0.00 kcal/mol
Vibrational entropy               ...      0.01180071 Eh      7.41 kcal/mol
Rotational entropy                ...      0.01364145 Eh      8.56 kcal/mol
Translational entropy             ...      0.02119681 Eh     13.30 kcal/mol
-----------------------------------------------------------------------
Final entropy term                ...      0.04663897 Eh     29.27 kcal/mol

In case the symmetry of your molecule has not been determined correctly
or in case you have a reason to use a different symmetry number we print
out the resulting rotational entropy values for sn=1,12 :
 --------------------------------------------------------
|  sn= 1 | S(rot)=       0.01560482 Eh      9.79 kcal/mol|
|  sn= 2 | S(rot)=       0.01495037 Eh      9.38 kcal/mol|
|  sn= 3 | S(rot)=       0.01456753 Eh      9.14 kcal/mol|
|  sn= 4 | S(rot)=       0.01429591 Eh      8.97 kcal/mol|
|  sn= 5 | S(rot)=       0.01408522 Eh      8.84 kcal/mol|
|  sn= 6 | S(rot)=       0.01391308 Eh      8.73 kcal/mol|
|  sn= 7 | S(rot)=       0.01376753 Eh      8.64 kcal/mol|
|  sn= 8 | S(rot)=       0.01364145 Eh      8.56 kcal/mol|
|  sn= 9 | S(rot)=       0.01353025 Eh      8.49 kcal/mol|
|  sn=10 | S(rot)=       0.01343077 Eh      8.43 kcal/mol|
|  sn=11 | S(rot)=       0.01334078 Eh      8.37 kcal/mol|
|  sn=12 | S(rot)=       0.01325862 Eh      8.32 kcal/mol|
 --------------------------------------------------------

-------------------
GIBBS FREE ENERGY
-------------------

The Gibbs free energy is G = H - T*S

Total enthalpy                    ... -10432.11161612 Eh
Total entropy correction          ...     -0.04663897 Eh    -29.27 kcal/mol
-----------------------------------------------------------------------
Final Gibbs free energy         ... -10432.15825509 Eh

For completeness - the Gibbs free energy minus the electronic energy
G-E(el)                           ...     -0.03397799 Eh    -21.32 kcal/mol

                             ****ORCA TERMINATED NORMALLY****
TOTAL RUN TIME: 0 days 0 hours 3 minutes 29 seconds 593 msec
