                         Program Version 5.0.4 -  RELEASE  -
|  1> # avogadro generated ORCA file
|  2> # Geometry Optimization | B3LYP/def2-TZVP
|  3> # [NiCl4]2-
|  4> # Ni +2
|  5> #
|  6> ! Opt B3LYP def2-TZVP FREQ
|  7>
|  8> %maxcore 4096
|  9>
| 10> %pal
| 11>    nprocs 4
| 12> end
| 13>
| 14> * xyz -2 3
| 15>    Ni     0.000000   -0.000000    0.000000
| 16>    Cl    -0.000000   -1.989000   -1.406400
| 17>    Cl     0.000000    1.989000   -1.406400
| 18>    Cl    -1.989000   -0.000000    1.406400
| 19>    Cl     1.989000   -0.000000    1.406400
| 20> *
| 21>
| 22>
| 23>
| 24>                          ****END OF INPUT****
 Total Charge           Charge          ....   -2
 Multiplicity           Mult            ....    3
 Number of Electrons    NEL             ....   98
FINAL SINGLE POINT ENERGY     -3349.146679190356
FINAL SINGLE POINT ENERGY     -3349.147844382718
FINAL SINGLE POINT ENERGY     -3349.150360571967
FINAL SINGLE POINT ENERGY     -3349.150373888844
FINAL SINGLE POINT ENERGY     -3349.150414974191
FINAL SINGLE POINT ENERGY     -3349.150432866194
FINAL SINGLE POINT ENERGY     -3349.150442230950
FINAL SINGLE POINT ENERGY     -3349.150447211414
FINAL SINGLE POINT ENERGY     -3349.150450203784
                    ***********************HURRAY********************

CARTESIAN COORDINATES (ANGSTROEM)
---------------------------------
  Ni    -0.000001   -0.000001    0.064099
  Cl    -0.000000   -1.901257   -1.305134
  Cl     0.000001    1.901257   -1.305133
  Cl    -2.054203   -0.000000    1.273085
  Cl     2.054203    0.000001    1.273084

 Multiplicity           Mult            ....    3
 Number of Electrons    NEL             ....   98
 Basis Dimension        Dim             ....  193

ORBITAL ENERGIES
----------------
                 SPIN UP ORBITALS
  NO   OCC          E(Eh)            E(eV)
   0   1.0000    -299.608517     -8152.7622
   1   1.0000    -101.153245     -2752.5197
   2   1.0000    -101.153242     -2752.5196
   3   1.0000    -101.152249     -2752.4926
   4   1.0000    -101.152247     -2752.4926
   5   1.0000     -35.552769      -967.4400
   6   1.0000     -30.977454      -842.9394
   7   1.0000     -30.972213      -842.7967
   8   1.0000     -30.969196      -842.7147
   9   1.0000      -9.085560      -247.2306
  10   1.0000      -9.085551      -247.2304
  11   1.0000      -9.084644      -247.2057
  12   1.0000      -9.084639      -247.2056
  13   1.0000      -6.843104      -186.2103
  14   1.0000      -6.843100      -186.2102
  15   1.0000      -6.843082      -186.2097
  16   1.0000      -6.843078      -186.2096
  17   1.0000      -6.840863      -186.1493
  18   1.0000      -6.840861      -186.1493
  19   1.0000      -6.840762      -186.1466
  20   1.0000      -6.840761      -186.1466
  21   1.0000      -6.839617      -186.1155
  22   1.0000      -6.839616      -186.1154
  23   1.0000      -6.839353      -186.1082
  24   1.0000      -6.839352      -186.1082
  25   1.0000      -3.823838      -104.0519
  26   1.0000      -2.422476       -65.9189
  27   1.0000      -2.412117       -65.6370
  28   1.0000      -2.405927       -65.4686
  29   1.0000      -0.449906       -12.2426
  30   1.0000      -0.443043       -12.0558
  31   1.0000      -0.442698       -12.0464
  32   1.0000      -0.442290       -12.0353
  33   1.0000      -0.114813        -3.1242
  34   1.0000      -0.114607        -3.1186
  35   1.0000      -0.078507        -2.1363
  36   1.0000      -0.075881        -2.0648
  37   1.0000      -0.073028        -1.9872
  38   1.0000      -0.053669        -1.4604
  39   1.0000      -0.004038        -0.1099
  40   1.0000      -0.003148        -0.0857
  41   1.0000      -0.000743        -0.0202
  42   1.0000       0.024405         0.6641
  43   1.0000       0.025342         0.6896
  44   1.0000       0.028586         0.7779
  45   1.0000       0.031085         0.8459
  46   1.0000       0.031943         0.8692
  47   1.0000       0.034267         0.9324
  48   1.0000       0.036302         0.9878
  49   1.0000       0.038911         1.0588
  50   0.0000       0.314146         8.5484
  51   0.0000       0.412103        11.2139
  52   0.0000       0.445623        12.1260
  53   0.0000       0.447078        12.1656
  54   0.0000       0.463385        12.6093

                 SPIN DOWN ORBITALS
  NO   OCC          E(Eh)            E(eV)
   0   1.0000    -299.607618     -8152.7378
   1   1.0000    -101.152770     -2752.5068
   2   1.0000    -101.152768     -2752.5067
   3   1.0000    -101.151527     -2752.4730
   4   1.0000    -101.151525     -2752.4729
   5   1.0000     -35.509295      -966.2570
   6   1.0000     -30.939105      -841.8959
   7   1.0000     -30.936699      -841.8304
   8   1.0000     -30.935605      -841.8006
   9   1.0000      -9.085137      -247.2191
  10   1.0000      -9.085128      -247.2189
  11   1.0000      -9.083992      -247.1880
  12   1.0000      -9.083985      -247.1878
  13   1.0000      -6.842316      -186.1889
  14   1.0000      -6.842312      -186.1888
  15   1.0000      -6.841180      -186.1580
  16   1.0000      -6.841176      -186.1579
  17   1.0000      -6.840265      -186.1331
  18   1.0000      -6.840264      -186.1330
  19   1.0000      -6.840198      -186.1312
  20   1.0000      -6.840197      -186.1312
  21   1.0000      -6.839031      -186.0995
  22   1.0000      -6.839029      -186.0994
  23   1.0000      -6.838946      -186.0972
  24   1.0000      -6.838945      -186.0972
  25   1.0000      -3.729463      -101.4838
  26   1.0000      -2.315499       -63.0079
  27   1.0000      -2.312791       -62.9343
  28   1.0000      -2.312302       -62.9209
  29   1.0000      -0.446443       -12.1483
  30   1.0000      -0.440285       -11.9808
  31   1.0000      -0.438432       -11.9303
  32   1.0000      -0.438063       -11.9203
  33   1.0000      -0.048003        -1.3062
  34   1.0000      -0.047728        -1.2987
  35   1.0000      -0.042385        -1.1534
  36   1.0000      -0.040637        -1.1058
  37   1.0000      -0.010184        -0.2771
  38   1.0000      -0.007276        -0.1980
  39   1.0000       0.000791         0.0215
  40   1.0000       0.013705         0.3729
  41   1.0000       0.014258         0.3880
  42   1.0000       0.031558         0.8587
  43   1.0000       0.031977         0.8701
  44   1.0000       0.033707         0.9172
  45   1.0000       0.034284         0.9329
  46   1.0000       0.036572         0.9952
  47   1.0000       0.049890         1.3576
  48   0.0000       0.191829         5.2199
  49   0.0000       0.192935         5.2500
  50   0.0000       0.319121         8.6837
  51   0.0000       0.421465        11.4687
  52   0.0000       0.456313        12.4169

MULLIKEN ATOMIC CHARGES AND SPIN POPULATIONS
--------------------------------------------
   0 Ni:    0.793080    1.708347
   1 Cl:   -0.684268    0.092573
   2 Cl:   -0.684268    0.092572
   3 Cl:   -0.712271    0.053254
   4 Cl:   -0.712272    0.053254
Sum of atomic charges         :   -2.0000000

LOEWDIN ATOMIC CHARGES AND SPIN POPULATIONS
-------------------------------------------
   0 Ni:   -0.529697    1.713493
   1 Cl:   -0.348708    0.087375
   2 Cl:   -0.348708    0.087375
   3 Cl:   -0.386443    0.055878
   4 Cl:   -0.386444    0.055878

  Mayer bond orders larger than 0.100000
B(  0-Ni,  1-Cl) :   0.5497 B(  0-Ni,  2-Cl) :   0.5497 B(  0-Ni,  3-Cl) :   0.5120
B(  0-Ni,  4-Cl) :   0.5120

FINAL SINGLE POINT ENERGY     -3349.150450319791

DIPOLE MOMENT
-------------
                                X             Y             Z
Electronic contribution:     -0.00000      -0.00000       0.12101
Nuclear contribution   :      0.00000       0.00000      -0.01575
                        -----------------------------------------
Total Dipole Moment    :     -0.00000      -0.00000       0.10526
                        -----------------------------------------
Magnitude (a.u.)       :      0.10526
Magnitude (Debye)      :      0.26754

VIBRATIONAL FREQUENCIES
-----------------------

Scaling factor for frequencies =  1.000000000  (already applied!)

   0:         0.00 cm**-1
   1:         0.00 cm**-1
   2:         0.00 cm**-1
   3:         0.00 cm**-1
   4:         0.00 cm**-1
   5:         0.00 cm**-1
   6:      -116.86 cm**-1 ***imaginary mode***
   7:        68.40 cm**-1
   8:        69.10 cm**-1
   9:       113.17 cm**-1
  10:       117.32 cm**-1
  11:       215.62 cm**-1
  12:       218.69 cm**-1
  13:       245.76 cm**-1
  14:       259.10 cm**-1

IR SPECTRUM
-----------

 Mode   freq       eps      Int      T**2         TX        TY        TZ
       cm**-1   L/(mol*cm) km/mol    a.u.
----------------------------------------------------------------------------
  7:     68.40   0.000000    0.00  0.000000  ( 0.000000  0.000000 -0.000003)
  8:     69.10   0.000059    0.30  0.000266  (-0.000000  0.000000  0.016316)
  9:    113.17   0.000965    4.87  0.002660  (-0.000000  0.051574  0.000000)
 10:    117.32   0.001098    5.55  0.002921  ( 0.000000  0.000000 -0.054049)
 11:    215.62   0.005636   28.48  0.008156  ( 0.000019 -0.000000  0.090313)
 12:    218.69   0.023851  120.53  0.034033  (-0.184482  0.000000  0.000009)
 13:    245.76   0.010302   52.06  0.013081  ( 0.000001  0.000001 -0.114374)
 14:    259.10   0.015055   76.08  0.018133  (-0.000000 -0.134659 -0.000001)

--------------------------
THERMOCHEMISTRY AT 298.15K
--------------------------

Temperature         ... 298.15 K
Pressure            ... 1.00 atm
Total Mass          ... 200.51 AMU

Throughout the following assumptions are being made:
  (1) The electronic state is orbitally nondegenerate
      but the spin degeneracy is treated
  (2) There are no thermally accessible electronically excited states
  (3) Hindered rotations indicated by low frequency modes are not
      treated as such but are treated as vibrations and this may
      cause some error
  (4) All equations used are the standard statistical mechanics
      equations for an ideal gas
  (5) All vibrations are strictly harmonic

freq.      68.40  E(vib)   ...       0.50
freq.      69.10  E(vib)   ...       0.50
freq.     113.17  E(vib)   ...       0.45
freq.     117.32  E(vib)   ...       0.44
freq.     215.62  E(vib)   ...       0.34
freq.     218.69  E(vib)   ...       0.33
freq.     245.76  E(vib)   ...       0.31
freq.     259.10  E(vib)   ...       0.30

------------
INNER ENERGY
------------

The inner energy is: U= E(el) + E(ZPE) + E(vib) + E(rot) + E(trans)
    E(el)   - is the total energy from the electronic structure calculation
              = E(kin-el) + E(nuc-el) + E(el-el) + E(nuc-nuc)
    E(ZPE)  - the the zero temperature vibrational energy from the frequency calculation
    E(vib)  - the the finite temperature correction to E(ZPE) due to population
              of excited vibrational states
    E(rot)  - is the rotational thermal energy
    E(trans)- is the translational thermal energy

Summary of contributions to the inner energy U:
Electronic energy                ...  -3349.15045032 Eh
Zero point energy                ...      0.00297797 Eh       1.87 kcal/mol
Thermal vibrational correction   ...      0.00503923 Eh       3.16 kcal/mol
Thermal rotational correction    ...      0.00141627 Eh       0.89 kcal/mol
Thermal translational correction ...      0.00141627 Eh       0.89 kcal/mol
-----------------------------------------------------------------------
Total thermal energy                  -3349.13960058 Eh

Summary of corrections to the electronic energy:
(perhaps to be used in another calculation)
Total thermal correction                  0.00787178 Eh       4.94 kcal/mol
Non-thermal (ZPE) correction              0.00297797 Eh       1.87 kcal/mol
-----------------------------------------------------------------------
Total correction                          0.01084974 Eh       6.81 kcal/mol

--------
ENTHALPY
--------

The enthalpy is H = U + kB*T
                kB is Boltzmann's constant
Total free energy                 ...  -3349.13960058 Eh
Thermal Enthalpy correction       ...      0.00094421 Eh       0.59 kcal/mol
-----------------------------------------------------------------------
Total Enthalpy                    ...  -3349.13865637 Eh

Note: Rotational entropy computed according to Herzberg
Infrared and Raman Spectra, Chapter V,1, Van Nostrand Reinhold, 1945
Point Group:  C2v, Symmetry Number:   2
Rotational constants in cm-1:     0.034247     0.031502     0.030346

Vibrational entropy computed according to the QRRHO of S. Grimme
Chem.Eur.J. 2012 18 9955

-------
ENTROPY
-------

The entropy contributions are T*S = T*(S(el)+S(vib)+S(rot)+S(trans))
     S(el)   - electronic entropy
     S(vib)  - vibrational entropy
     S(rot)  - rotational entropy
     S(trans)- translational entropy
The entropies will be listed as multiplied by the temperature to get
units of energy

Electronic entropy                ...      0.00103729 Eh      0.65 kcal/mol
Vibrational entropy               ...      0.00961690 Eh      6.03 kcal/mol
Rotational entropy                ...      0.01373162 Eh      8.62 kcal/mol
Translational entropy             ...      0.01985655 Eh     12.46 kcal/mol
-----------------------------------------------------------------------
Final entropy term                ...      0.04424236 Eh     27.76 kcal/mol

In case the symmetry of your molecule has not been determined correctly
or in case you have a reason to use a different symmetry number we print
out the resulting rotational entropy values for sn=1,12 :
 --------------------------------------------------------
|  sn= 1 | S(rot)=       0.01438607 Eh      9.03 kcal/mol|
|  sn= 2 | S(rot)=       0.01373162 Eh      8.62 kcal/mol|
|  sn= 3 | S(rot)=       0.01334878 Eh      8.38 kcal/mol|
|  sn= 4 | S(rot)=       0.01307716 Eh      8.21 kcal/mol|
|  sn= 5 | S(rot)=       0.01286647 Eh      8.07 kcal/mol|
|  sn= 6 | S(rot)=       0.01269433 Eh      7.97 kcal/mol|
|  sn= 7 | S(rot)=       0.01254878 Eh      7.87 kcal/mol|
|  sn= 8 | S(rot)=       0.01242270 Eh      7.80 kcal/mol|
|  sn= 9 | S(rot)=       0.01231150 Eh      7.73 kcal/mol|
|  sn=10 | S(rot)=       0.01221202 Eh      7.66 kcal/mol|
|  sn=11 | S(rot)=       0.01212203 Eh      7.61 kcal/mol|
|  sn=12 | S(rot)=       0.01203987 Eh      7.56 kcal/mol|
 --------------------------------------------------------

-------------------
GIBBS FREE ENERGY
-------------------

The Gibbs free energy is G = H - T*S

Total enthalpy                    ...  -3349.13865637 Eh
Total entropy correction          ...     -0.04424236 Eh    -27.76 kcal/mol
-----------------------------------------------------------------------
Final Gibbs free energy         ...  -3349.18289872 Eh

For completeness - the Gibbs free energy minus the electronic energy
G-E(el)                           ...     -0.03244840 Eh    -20.36 kcal/mol

                             ****ORCA TERMINATED NORMALLY****
TOTAL RUN TIME: 0 days 0 hours 3 minutes 28 seconds 707 msec
