                         Program Version 5.0.4 -  RELEASE  -
|  1> # avogadro generated ORCA file
|  2> # C4H4O4Ni | Geometry Optimization | B3LYP/def2-TZVP
|  3> # [NiCO4]
|  4> #
|  5> ! Opt B3LYP def2-TZVP FREQ
|  6>
|  7> %maxcore 4096
|  8>
|  9> %pal
| 10>    nprocs 4
| 11> end
| 12>
| 13> * xyz 0 3
| 14>    Ni    -0.000000   -0.000000    0.000000
| 15>    C     -0.350300   -1.748500   -1.260900
| 16>    O     -0.565800   -2.823900   -0.755600
| 17>    C      0.350300    1.748500   -1.260900
| 18>    O      0.565800    2.823900   -0.755600
| 19>    C     -1.748500    0.350300    1.260900
| 20>    O     -2.823900    0.565800    0.755600
| 21>    C      1.748500   -0.350300    1.260900
| 22>    O      2.823900   -0.565800    0.755600
| 23>    H     -0.330900   -1.651300   -2.336400
| 24>    H      0.330900    1.651300   -2.336400
| 25>    H     -1.651300    0.330900    2.336400
| 26>    H      1.651300   -0.330900    2.336400
| 27> *
| 28>
| 29>
| 30>
| 31>                          ****END OF INPUT****
 Total Charge           Charge          ....    0
 Multiplicity           Mult            ....    3
 Number of Electrons    NEL             ....   88
FINAL SINGLE POINT ENERGY     -1963.777612376643
FINAL SINGLE POINT ENERGY     -1963.790899378285
FINAL SINGLE POINT ENERGY     -1963.802669856652
FINAL SINGLE POINT ENERGY     -1963.812342427855
FINAL SINGLE POINT ENERGY     -1963.820399423500
FINAL SINGLE POINT ENERGY     -1963.822730392465
FINAL SINGLE POINT ENERGY     -1963.823369189266
FINAL SINGLE POINT ENERGY     -1963.824718497836
FINAL SINGLE POINT ENERGY     -1963.825062959852
FINAL SINGLE POINT ENERGY     -1963.825333006909
FINAL SINGLE POINT ENERGY     -1963.825874659076
FINAL SINGLE POINT ENERGY     -1963.826105700176
FINAL SINGLE POINT ENERGY     -1963.826305576491
FINAL SINGLE POINT ENERGY     -1963.825665097007
FINAL SINGLE POINT ENERGY     -1963.826322889510
FINAL SINGLE POINT ENERGY     -1963.826260297221
FINAL SINGLE POINT ENERGY     -1963.826349126995
FINAL SINGLE POINT ENERGY     -1963.826309395722
FINAL SINGLE POINT ENERGY     -1963.826344041092
                    ***********************HURRAY********************

CARTESIAN COORDINATES (ANGSTROEM)
---------------------------------
  Ni     0.000075    0.000081    0.003941
  C      0.120807   -1.442505   -1.304692
  O      0.017161   -2.595502   -1.046554
  C     -0.121094    1.442348   -1.305042
  O     -0.019410    2.595507   -1.046921
  C     -1.297458    0.666619    1.305814
  O     -2.393612    1.033342    1.040878
  C      1.297733   -0.666407    1.305672
  O      2.394955   -1.030040    1.040896
  H      0.143799   -1.089062   -2.373555
  H     -0.141911    1.088701   -2.373880
  H     -0.977365    0.530246    2.376781
  H      0.976319   -0.533328    2.376662

 Multiplicity           Mult            ....    3
 Number of Electrons    NEL             ....   88
 Basis Dimension        Dim             ....  317

ORBITAL ENERGIES
----------------
                 SPIN UP ORBITALS
  NO   OCC          E(Eh)            E(eV)
   0   1.0000    -299.875017     -8160.0141
   1   1.0000     -35.805858      -974.3269
   2   1.0000     -31.232142      -849.8698
   3   1.0000     -31.232022      -849.8665
   4   1.0000     -31.225919      -849.7005
   5   1.0000     -19.187001      -522.1048
   6   1.0000     -19.186985      -522.1044
   7   1.0000     -19.186264      -522.0848
   8   1.0000     -19.186257      -522.0846
   9   1.0000     -10.288416      -279.9620
  10   1.0000     -10.288398      -279.9615
  11   1.0000     -10.287987      -279.9504
  12   1.0000     -10.287979      -279.9501
  13   1.0000      -4.040535      -109.9485
  14   1.0000      -2.631833       -71.6158
  15   1.0000      -2.631761       -71.6138
  16   1.0000      -2.621210       -71.3267
  17   1.0000      -1.108993       -30.1772
  18   1.0000      -1.108552       -30.1652
  19   1.0000      -1.106796       -30.1175
  20   1.0000      -1.106724       -30.1155
  21   1.0000      -0.653781       -17.7903
  22   1.0000      -0.643287       -17.5047
  23   1.0000      -0.617070       -16.7913
  24   1.0000      -0.614741       -16.7279
  25   1.0000      -0.518471       -14.1083
  26   1.0000      -0.506004       -13.7691
  27   1.0000      -0.505798       -13.7635
  28   1.0000      -0.498499       -13.5649
  29   1.0000      -0.487988       -13.2788
  30   1.0000      -0.457174       -12.4403
  31   1.0000      -0.455844       -12.4041
  32   1.0000      -0.452222       -12.3056
  33   1.0000      -0.444986       -12.1087
  34   1.0000      -0.443995       -12.0817
  35   1.0000      -0.439039       -11.9469
  36   1.0000      -0.433489       -11.7958
  37   1.0000      -0.320299        -8.7158
  38   1.0000      -0.311594        -8.4789
  39   1.0000      -0.310400        -8.4464
  40   1.0000      -0.307015        -8.3543
  41   1.0000      -0.303859        -8.2684
  42   1.0000      -0.273167        -7.4333
  43   1.0000      -0.232189        -6.3182
  44   1.0000      -0.224066        -6.0971
  45   0.0000      -0.114993        -3.1291
  46   0.0000      -0.055585        -1.5125
  47   0.0000      -0.055258        -1.5036
  48   0.0000      -0.049347        -1.3428
  49   0.0000      -0.048800        -1.3279

                 SPIN DOWN ORBITALS
  NO   OCC          E(Eh)            E(eV)
   0   1.0000    -299.874300     -8159.9945
   1   1.0000     -35.804392      -974.2870
   2   1.0000     -31.233161      -849.8975
   3   1.0000     -31.231620      -849.8556
   4   1.0000     -31.220294      -849.5474
   5   1.0000     -19.181659      -521.9595
   6   1.0000     -19.181644      -521.9591
   7   1.0000     -19.181044      -521.9428
   8   1.0000     -19.181038      -521.9426
   9   1.0000     -10.285031      -279.8699
  10   1.0000     -10.285014      -279.8695
  11   1.0000     -10.284682      -279.8604
  12   1.0000     -10.284673      -279.8602
  13   1.0000      -4.037431      -109.8641
  14   1.0000      -2.635800       -71.7238
  15   1.0000      -2.631585       -71.6091
  16   1.0000      -2.606742       -70.9331
  17   1.0000      -1.099581       -29.9211
  18   1.0000      -1.099155       -29.9095
  19   1.0000      -1.097501       -29.8645
  20   1.0000      -1.097438       -29.8628
  21   1.0000      -0.637502       -17.3473
  22   1.0000      -0.628451       -17.1010
  23   1.0000      -0.603077       -16.4106
  24   1.0000      -0.600395       -16.3376
  25   1.0000      -0.500236       -13.6121
  26   1.0000      -0.494336       -13.4516
  27   1.0000      -0.488588       -13.2952
  28   1.0000      -0.484639       -13.1877
  29   1.0000      -0.470887       -12.8135
  30   1.0000      -0.444011       -12.0822
  31   1.0000      -0.443035       -12.0556
  32   1.0000      -0.440301       -11.9812
  33   1.0000      -0.440181       -11.9779
  34   1.0000      -0.434960       -11.8359
  35   1.0000      -0.426530       -11.6065
  36   1.0000      -0.416372       -11.3301
  37   1.0000      -0.314856        -8.5677
  38   1.0000      -0.299265        -8.1434
  39   1.0000      -0.294779        -8.0213
  40   1.0000      -0.291298        -7.9266
  41   1.0000      -0.278772        -7.5858
  42   1.0000      -0.238616        -6.4931
  43   0.0000      -0.150260        -4.0888
  44   0.0000      -0.140715        -3.8291
  45   0.0000      -0.109911        -2.9908
  46   0.0000      -0.048239        -1.3127
  47   0.0000      -0.040903        -1.1130

MULLIKEN ATOMIC CHARGES AND SPIN POPULATIONS
--------------------------------------------
   0 Ni:    0.093550    0.205645
   1 C :    0.044120    0.177567
   2 O :   -0.161204    0.169267
   3 C :    0.044184    0.177540
   4 O :   -0.161129    0.169287
   5 C :    0.042887    0.182174
   6 O :   -0.159853    0.172861
   7 C :    0.042940    0.182265
   8 O :   -0.159882    0.172906
   9 H :    0.092908    0.096481
  10 H :    0.092941    0.096456
  11 H :    0.094282    0.098739
  12 H :    0.094256    0.098811
Sum of atomic charges         :   -0.0000000

LOEWDIN ATOMIC CHARGES AND SPIN POPULATIONS
-------------------------------------------
   0 Ni:   -0.130900    0.252798
   1 C :   -0.289461    0.216073
   2 O :    0.197408    0.156900
   3 C :   -0.289451    0.216069
   4 O :    0.197506    0.156919
   5 C :   -0.288665    0.221236
   6 O :    0.198322    0.160533
   7 C :   -0.288635    0.221309
   8 O :    0.198278    0.160566
   9 H :    0.123692    0.058730
  10 H :    0.123704    0.058715
  11 H :    0.124101    0.060053
  12 H :    0.124100    0.060100

  Mayer bond orders larger than 0.100000
B(  0-Ni,  1-C ) :   0.7164 B(  0-Ni,  2-O ) :   0.1030 B(  0-Ni,  3-C ) :   0.7164
B(  0-Ni,  4-O ) :   0.1031 B(  0-Ni,  5-C ) :   0.7133 B(  0-Ni,  6-O ) :   0.1023
B(  0-Ni,  7-C ) :   0.7132 B(  0-Ni,  8-O ) :   0.1023 B(  1-C ,  2-O ) :   2.1000
B(  1-C ,  9-H ) :   0.8282 B(  3-C ,  4-O ) :   2.1001 B(  3-C , 10-H ) :   0.8282
B(  5-C ,  6-O ) :   2.1019 B(  5-C , 11-H ) :   0.8281 B(  7-C ,  8-O ) :   2.1019
B(  7-C , 12-H ) :   0.8281

FINAL SINGLE POINT ENERGY     -1963.826343834927

DIPOLE MOMENT
-------------
                                X             Y             Z
Electronic contribution:     -0.00012       0.00222       0.02566
Nuclear contribution   :      0.00066      -0.00379      -0.00493
                        -----------------------------------------
Total Dipole Moment    :      0.00054      -0.00157       0.02074
                        -----------------------------------------
Magnitude (a.u.)       :      0.02080
Magnitude (Debye)      :      0.05288

VIBRATIONAL FREQUENCIES
-----------------------

Scaling factor for frequencies =  1.000000000  (already applied!)

   0:         0.00 cm**-1
   1:         0.00 cm**-1
   2:         0.00 cm**-1
   3:         0.00 cm**-1
   4:         0.00 cm**-1
   5:         0.00 cm**-1
   6:       -88.52 cm**-1 ***imaginary mode***
   7:       -49.67 cm**-1 ***imaginary mode***
   8:        37.48 cm**-1
   9:        50.30 cm**-1
  10:        78.75 cm**-1
  11:        95.99 cm**-1
  12:        98.45 cm**-1
  13:       103.21 cm**-1
  14:       122.72 cm**-1
  15:       167.58 cm**-1
  16:       270.75 cm**-1
  17:       283.46 cm**-1
  18:       304.60 cm**-1
  19:       415.46 cm**-1
  20:       481.06 cm**-1
  21:       500.14 cm**-1
  22:       520.81 cm**-1
  23:       682.05 cm**-1
  24:       683.37 cm**-1
  25:       731.08 cm**-1
  26:       790.85 cm**-1
  27:      1196.42 cm**-1
  28:      1203.78 cm**-1
  29:      1231.19 cm**-1
  30:      1242.77 cm**-1
  31:      1769.44 cm**-1
  32:      1802.30 cm**-1
  33:      1809.14 cm**-1
  34:      1859.05 cm**-1
  35:      2654.03 cm**-1
  36:      2662.54 cm**-1
  37:      2668.45 cm**-1
  38:      2671.61 cm**-1

IR SPECTRUM
-----------

 Mode   freq       eps      Int      T**2         TX        TY        TZ
       cm**-1   L/(mol*cm) km/mol    a.u.
----------------------------------------------------------------------------
  8:     37.48   0.000000    0.00  0.000000  (-0.000230 -0.000181  0.000015)
  9:     50.30   0.001747    8.83  0.010839  ( 0.087398  0.056574 -0.000043)
 10:     78.75   0.000531    2.68  0.002103  (-0.000126 -0.000052  0.045857)
 11:     95.99   0.003127   15.80  0.010167  ( 0.000053 -0.000091  0.100832)
 12:     98.45   0.000060    0.31  0.000192  ( 0.007621 -0.011556  0.000257)
 13:    103.21   0.001472    7.44  0.004451  ( 0.000111 -0.000137 -0.066718)
 14:    122.72   0.000007    0.03  0.000017  (-0.000068  0.000050  0.004095)
 15:    167.58   0.000151    0.76  0.000281  (-0.000018  0.000017 -0.016763)
 16:    270.75   0.002784   14.07  0.003209  ( 0.047576  0.030743 -0.000016)
 17:    283.46   0.000000    0.00  0.000000  ( 0.000045 -0.000072  0.000357)
 18:    304.60   0.001980   10.01  0.002028  ( 0.024733 -0.037639  0.000018)
 19:    415.46   0.013109   66.25  0.009847  (-0.058853  0.079893 -0.000006)
 20:    481.06   0.008766   44.30  0.005686  (-0.059662 -0.046119  0.000017)
 21:    500.14   0.008102   40.94  0.005055  (-0.000105 -0.000060 -0.071099)
 22:    520.81   0.000137    0.69  0.000082  ( 0.000014  0.000000 -0.009056)
 23:    682.05   0.001403    7.09  0.000642  (-0.008207  0.023967  0.000157)
 24:    683.37   0.000230    1.16  0.000105  (-0.000221  0.000359 -0.010249)
 25:    731.08   0.015575   78.71  0.006648  ( 0.069643  0.042403 -0.000052)
 26:    790.85   0.000008    0.04  0.000003  ( 0.000016 -0.000005 -0.001781)
 27:   1196.42   0.025785  130.31  0.006726  ( 0.049651 -0.065272  0.000022)
 28:   1203.78   0.003030   15.31  0.000786  ( 0.006503  0.027264 -0.000034)
 29:   1231.19   0.018141   91.68  0.004598  ( 0.000023 -0.000021 -0.067809)
 30:   1242.77   0.000545    2.76  0.000137  ( 0.000007 -0.000043 -0.011702)
 31:   1769.44   0.101872  514.82  0.017967  (-0.000003 -0.000152 -0.134039)
 32:   1802.30   0.097632  493.39  0.016905  ( 0.095272  0.088476  0.000003)
 33:   1809.14   0.246101  1243.70  0.042451  (-0.124647  0.164055 -0.000078)
 34:   1859.05   0.000001    0.01  0.000000  (-0.000023  0.000175  0.000384)
 35:   2654.03   0.101967  515.30  0.011989  ( 0.000029  0.000046 -0.109496)
 36:   2662.54   0.000042    0.21  0.000005  ( 0.000083 -0.000139 -0.002210)
 37:   2668.45   0.006902   34.88  0.000807  (-0.018261  0.021764  0.000091)
 38:   2671.61   0.001253    6.33  0.000146  ( 0.001958  0.011936 -0.000149)

--------------------------
THERMOCHEMISTRY AT 298.15K
--------------------------

Temperature         ... 298.15 K
Pressure            ... 1.00 atm
Total Mass          ... 174.77 AMU

Throughout the following assumptions are being made:
  (1) The electronic state is orbitally nondegenerate
      but the spin degeneracy is treated
  (2) There are no thermally accessible electronically excited states
  (3) Hindered rotations indicated by low frequency modes are not
      treated as such but are treated as vibrations and this may
      cause some error
  (4) All equations used are the standard statistical mechanics
      equations for an ideal gas
  (5) All vibrations are strictly harmonic

freq.      37.48  E(vib)   ...       0.54
freq.      50.30  E(vib)   ...       0.52
freq.      78.75  E(vib)   ...       0.49
freq.      95.99  E(vib)   ...       0.47
freq.      98.45  E(vib)   ...       0.46
freq.     103.21  E(vib)   ...       0.46
freq.     122.72  E(vib)   ...       0.43
freq.     167.58  E(vib)   ...       0.38
freq.     270.75  E(vib)   ...       0.29
freq.     283.46  E(vib)   ...       0.28
freq.     304.60  E(vib)   ...       0.26
freq.     415.46  E(vib)   ...       0.18
freq.     481.06  E(vib)   ...       0.15
freq.     500.14  E(vib)   ...       0.14
freq.     520.81  E(vib)   ...       0.13
freq.     682.05  E(vib)   ...       0.08
freq.     683.37  E(vib)   ...       0.08
freq.     731.08  E(vib)   ...       0.06
freq.     790.85  E(vib)   ...       0.05
freq.    1196.42  E(vib)   ...       0.01
freq.    1203.78  E(vib)   ...       0.01
freq.    1231.19  E(vib)   ...       0.01
freq.    1242.77  E(vib)   ...       0.01
freq.    1769.44  E(vib)   ...       0.00
freq.    1802.30  E(vib)   ...       0.00
freq.    1809.14  E(vib)   ...       0.00
freq.    1859.05  E(vib)   ...       0.00
freq.    2654.03  E(vib)   ...       0.00
freq.    2662.54  E(vib)   ...       0.00
freq.    2668.45  E(vib)   ...       0.00
freq.    2671.61  E(vib)   ...       0.00

------------
INNER ENERGY
------------

The inner energy is: U= E(el) + E(ZPE) + E(vib) + E(rot) + E(trans)
    E(el)   - is the total energy from the electronic structure calculation
              = E(kin-el) + E(nuc-el) + E(el-el) + E(nuc-nuc)
    E(ZPE)  - the the zero temperature vibrational energy from the frequency calculation
    E(vib)  - the the finite temperature correction to E(ZPE) due to population
              of excited vibrational states
    E(rot)  - is the rotational thermal energy
    E(trans)- is the translational thermal energy

Summary of contributions to the inner energy U:
Electronic energy                ...  -1963.82634383 Eh
Zero point energy                ...      0.06649704 Eh      41.73 kcal/mol
Thermal vibrational correction   ...      0.00875515 Eh       5.49 kcal/mol
Thermal rotational correction    ...      0.00141627 Eh       0.89 kcal/mol
Thermal translational correction ...      0.00141627 Eh       0.89 kcal/mol
-----------------------------------------------------------------------
Total thermal energy                  -1963.74825911 Eh

Summary of corrections to the electronic energy:
(perhaps to be used in another calculation)
Total thermal correction                  0.01158769 Eh       7.27 kcal/mol
Non-thermal (ZPE) correction              0.06649704 Eh      41.73 kcal/mol
-----------------------------------------------------------------------
Total correction                          0.07808473 Eh      49.00 kcal/mol

--------
ENTHALPY
--------

The enthalpy is H = U + kB*T
                kB is Boltzmann's constant
Total free energy                 ...  -1963.74825911 Eh
Thermal Enthalpy correction       ...      0.00094421 Eh       0.59 kcal/mol
-----------------------------------------------------------------------
Total Enthalpy                    ...  -1963.74731490 Eh

Note: Only C1 symmetry has been detected, increase convergence thresholds
      if your molecule has a higher symmetry. Symmetry factor of 1.0 is
      used for the rotational entropy correction.

Note: Rotational entropy computed according to Herzberg
Infrared and Raman Spectra, Chapter V,1, Van Nostrand Reinhold, 1945
Point Group:  C1, Symmetry Number:   1
Rotational constants in cm-1:     0.051294     0.031251     0.030132

Vibrational entropy computed according to the QRRHO of S. Grimme
Chem.Eur.J. 2012 18 9955

-------
ENTROPY
-------

The entropy contributions are T*S = T*(S(el)+S(vib)+S(rot)+S(trans))
     S(el)   - electronic entropy
     S(vib)  - vibrational entropy
     S(rot)  - rotational entropy
     S(trans)- translational entropy
The entropies will be listed as multiplied by the temperature to get
units of energy

Electronic entropy                ...      0.00103729 Eh      0.65 kcal/mol
Vibrational entropy               ...      0.01632841 Eh     10.25 kcal/mol
Rotational entropy                ...      0.01420247 Eh      8.91 kcal/mol
Translational entropy             ...      0.01966196 Eh     12.34 kcal/mol
-----------------------------------------------------------------------
Final entropy term                ...      0.05123014 Eh     32.15 kcal/mol

In case the symmetry of your molecule has not been determined correctly
or in case you have a reason to use a different symmetry number we print
out the resulting rotational entropy values for sn=1,12 :
 --------------------------------------------------------
|  sn= 1 | S(rot)=       0.01420247 Eh      8.91 kcal/mol|
|  sn= 2 | S(rot)=       0.01354802 Eh      8.50 kcal/mol|
|  sn= 3 | S(rot)=       0.01316518 Eh      8.26 kcal/mol|
|  sn= 4 | S(rot)=       0.01289356 Eh      8.09 kcal/mol|
|  sn= 5 | S(rot)=       0.01268287 Eh      7.96 kcal/mol|
|  sn= 6 | S(rot)=       0.01251073 Eh      7.85 kcal/mol|
|  sn= 7 | S(rot)=       0.01236518 Eh      7.76 kcal/mol|
|  sn= 8 | S(rot)=       0.01223910 Eh      7.68 kcal/mol|
|  sn= 9 | S(rot)=       0.01212790 Eh      7.61 kcal/mol|
|  sn=10 | S(rot)=       0.01202842 Eh      7.55 kcal/mol|
|  sn=11 | S(rot)=       0.01193843 Eh      7.49 kcal/mol|
|  sn=12 | S(rot)=       0.01185627 Eh      7.44 kcal/mol|
 --------------------------------------------------------

-------------------
GIBBS FREE ENERGY
-------------------

The Gibbs free energy is G = H - T*S

Total enthalpy                    ...  -1963.74731490 Eh
Total entropy correction          ...     -0.05123014 Eh    -32.15 kcal/mol
-----------------------------------------------------------------------
Final Gibbs free energy         ...  -1963.79854504 Eh

For completeness - the Gibbs free energy minus the electronic energy
G-E(el)                           ...      0.02779880 Eh     17.44 kcal/mol

                             ****ORCA TERMINATED NORMALLY****
TOTAL RUN TIME: 0 days 0 hours 31 minutes 39 seconds 489 msec
