                         Program Version 5.0.4 -  RELEASE  -
|  1> # input to generate an atomic fitting density for Cd
|  2> # this file is used internally by ORCA
|  3> #
|  4> # atomic ground state (S=1): 1s2 2s2 2p6 3s2 3p6 4s2 3d10 4p6 5s2 4d10
|  5> #
|  6> ! RHF AllowRHF def2-SVP def2/J  NoMulliken NoLoewdin NoMayer NoPrintMOs
|  7>
|  8> %output print[p_atomdensfit] 2 end
|  9>
| 10> %scf
| 11>   guess hcore
| 12>   maxiter 1000
| 13>   maxdisk 500000
| 14>   SCFMode Conventional
| 15>   lshift 1.000000
| 16>   hftyp rohf
| 17>   rohf_case sahf
| 18>   rohf_numop   2
| 19>   rohf_norb[1] 5
| 20>   rohf_nel[1]  10
| 21> end
| 22>
| 23> %basis
| 24>   NewECP 48
| 25>     N_core 28
| 26>     lmax f
| 27>     s 4
| 28>       1      13.8358689000    270.0094832000  2
| 29>       2       6.8572704000     38.7673080000  2
| 30>       3      15.1847957000     35.4766256000  2
| 31>       4       7.5923978000      5.6176768000  2
| 32>     p 4
| 33>       1      12.4049710000    193.8296294000  2
| 34>       2       6.5677995000     31.8965252000  2
| 35>       3      15.1847957000     35.4766256000  2
| 36>       4       7.5923978000      5.6176768000  2
| 37>     d 4
| 38>       1      10.8969253000     79.1936470000  2
| 39>       2       4.6411649000     13.2308267000  2
| 40>       3      15.1847957000     35.4766256000  2
| 41>       4       7.5923978000      5.6176768000  2
| 42>     f 2
| 43>       1      15.1847957000    -35.4766256000  2
| 44>       2       7.5923978000     -5.6176768000  2
| 45>   end
| 46>   NewGTO 48
| 47>     s 2
| 48>      1      20.0000000000     -0.8705577278
| 49>      2      16.3090516610      1.8579264276
| 50>     s 1
| 51>      1       6.4512709901      1.0000000000
| 52>     s 1
| 53>      1       1.5350047390      1.0000000000
| 54>     s 1
| 55>      1       0.6898363152      1.0000000000
| 56>     s 1
| 57>      1       0.1347572098      1.0000000000
| 58>     s 1
| 59>      1       0.0474168745      1.0000000000
| 60>     p 4
| 61>      1      14.0006814040      0.0799187426
| 62>      2       8.3094019872     -0.2930121128
| 63>      3       2.2020058122      0.5671292057
| 64>      4       1.0779246137      0.5729057138
| 65>     p 1
| 66>      1       0.5011187985      1.0000000000
| 67>     p 1
| 68>      1       0.1600000000      1.0000000000
| 69>     p 1
| 70>      1       0.0516000000      1.0000000000
| 71>     d 4
| 72>      1      30.3807897930      0.0049711478
| 73>      2      11.4745515780     -0.0217084208
| 74>      3       3.0507394903      0.3812816359
| 75>      4       1.3622028524      0.6859170380
| 76>     d 1
| 77>      1       0.5639940989      1.0000000000
| 78>     d 1
| 79>      1       0.2091668654      1.0000000000
| 80>   end
| 81>   NewAuxGTO 48
| 82>     S 1
| 83>      1 1310.72 1.0
| 84>     S 1
| 85>      1  655.36 1.0
| 86>     S 1
| 87>      1  327.68 1.0
| 88>     S 1
| 89>      1  163.84 1.0
| 90>     S 1
| 91>      1   81.82 1.0
| 92>     S 1
| 93>      1   40.96 1.0
| 94>     S 1
| 95>      1   20.48 1.0
| 96>     S 1
| 97>      1   10.24 1.0
| 98>     S 1
| 99>      1    5.12 1.0
|100>     S 1
|101>      1    2.56 1.0
|102>     S 1
|103>      1    1.28 1.0
|104>     S 1
|105>      1    0.64 1.0
|106>     S 1
|107>      1    0.32 1.0
|108>     S 1
|109>      1    0.16 1.0
|110>     S 1
|111>      1    0.08 1.0
|112>     S 1
|113>      1    0.04 1.0
|114>     S 1
|115>      1    0.02 1.0
|116>     S 1
|117>      1    0.01 1.0
|118>   end
|119> end
|120>
|121> * xyz 0 1
|122> 48  0.0 0.0 0.0
|123> *
|124>
|125>
|126>                          ****END OF INPUT****

CARTESIAN COORDINATES (ANGSTROEM)
---------------------------------
  Cd     0.000000    0.000000    0.000000

 Total Charge           Charge          ....    0
 Multiplicity           Mult            ....    1
 Number of Electrons    NEL             ....   20
 Basis Dimension        Dim             ....   33

ORBITAL ENERGIES
----------------

  NO   OCC          E(Eh)            E(eV)
   0   2.0000      -4.553183      -123.8984
   1   2.0000      -3.169505       -86.2466
   2   2.0000      -3.169505       -86.2466
   3   2.0000      -3.169504       -86.2466
   4   2.0000      -0.719815       -19.5872
   5   2.0000      -0.719901       -19.5895
   6   2.0000      -0.719813       -19.5871
   7   2.0000      -0.719813       -19.5871
   8   2.0000      -0.719813       -19.5871
   9   2.0000      -0.531674       -14.4676
  10   0.0000       0.057093         1.5536
  11   0.0000       0.057093         1.5536
  12   0.0000       0.057093         1.5536
  13   0.0000       0.224834         6.1180
  14   0.0000       0.363222         9.8838

FINAL SINGLE POINT ENERGY      -166.883922774048

DIPOLE MOMENT
-------------
                                X             Y             Z
Electronic contribution:     -0.00000       0.00000       0.00000
Nuclear contribution   :      0.00000       0.00000       0.00000
                        -----------------------------------------
Total Dipole Moment    :     -0.00000       0.00000       0.00000
                        -----------------------------------------
Magnitude (a.u.)       :      0.00000
Magnitude (Debye)      :      0.00000

Rotational constants in cm-1:     0.000000     0.000000     0.000000
Rotational constants in MHz :     0.000000     0.000000     0.000000

                             ****ORCA TERMINATED NORMALLY****
TOTAL RUN TIME: 0 days 0 hours 0 minutes 1 seconds 425 msec
