                         Program Version 5.0.4 -  RELEASE  -
|  1> # avogadro generated ORCA file
|  2> # Geometry Optimization | PBE0/def2-TZVP
|  3> # [WCl4O]-
|  4> #
|  5> ! Opt PBE0 def2-TZVP FREQ
|  6>
|  7> %maxcore 2730
|  8>
|  9> %pal
| 10>    nprocs 6
| 11> end
| 12>
| 13> * xyz -1 2
| 14>    W     -0.215400   -0.963431    0.118165
| 15>    Cl    -1.992836    0.604331   -0.091500
| 16>    Cl     1.783731    0.306536   -0.109374
| 17>    Cl    -2.173089   -2.311521    0.012006
| 18>    Cl     1.505721   -2.601610   -0.005400
| 19>    O     -0.156424   -0.315678    1.787151
| 20> *
| 21>
| 22>
| 23>
| 24>                          ****END OF INPUT****
 Total Charge           Charge          ....   -1
 Multiplicity           Mult            ....    2
 Number of Electrons    NEL             ....   91
FINAL SINGLE POINT ENERGY     -1982.819844719980
FINAL SINGLE POINT ENERGY     -1982.861150523031
FINAL SINGLE POINT ENERGY     -1982.883495333936
FINAL SINGLE POINT ENERGY     -1982.893902193505
FINAL SINGLE POINT ENERGY     -1982.895263579922
FINAL SINGLE POINT ENERGY     -1982.895677547386
FINAL SINGLE POINT ENERGY     -1982.895741586096
FINAL SINGLE POINT ENERGY     -1982.895752264621
FINAL SINGLE POINT ENERGY     -1982.895753436798
FINAL SINGLE POINT ENERGY     -1982.895752531256
FINAL SINGLE POINT ENERGY     -1982.895751172631
FINAL SINGLE POINT ENERGY     -1982.895749860781
FINAL SINGLE POINT ENERGY     -1982.895750452605
                    ***********************HURRAY********************

CARTESIAN COORDINATES (ANGSTROEM)
---------------------------------
  W     -0.204165   -0.862678    0.429308
  Cl    -1.692256    0.768765   -0.402061
  Cl     1.516769    0.538148   -0.381619
  Cl    -1.945168   -2.403977    0.011210
  Cl     1.255795   -2.656269   -0.042351
  O     -0.179274   -0.665362    2.096561

 Multiplicity           Mult            ....    2
 Number of Electrons    NEL             ....   91
 Basis Dimension        Dim             ....  219

ORBITAL ENERGIES
----------------
                 SPIN UP ORBITALS
  NO   OCC          E(Eh)            E(eV)
   0   1.0000    -101.532728     -2762.8460
   1   1.0000    -101.532675     -2762.8446
   2   1.0000    -101.531832     -2762.8216
   3   1.0000    -101.531475     -2762.8119
   4   1.0000     -19.105796      -519.8951
   5   1.0000      -9.359598      -254.6876
   6   1.0000      -9.359565      -254.6867
   7   1.0000      -9.358693      -254.6630
   8   1.0000      -9.358359      -254.6539
   9   1.0000      -7.090305      -192.9370
  10   1.0000      -7.090281      -192.9364
  11   1.0000      -7.089381      -192.9119
  12   1.0000      -7.089068      -192.9033
  13   1.0000      -7.087393      -192.8578
  14   1.0000      -7.087353      -192.8567
  15   1.0000      -7.086868      -192.8435
  16   1.0000      -7.086817      -192.8421
  17   1.0000      -7.086473      -192.8327
  18   1.0000      -7.086143      -192.8238
  19   1.0000      -7.086002      -192.8199
  20   1.0000      -7.085639      -192.8100
  21   1.0000      -2.941797       -80.0504
  22   1.0000      -1.599336       -43.5201
  23   1.0000      -1.576462       -42.8977
  24   1.0000      -1.576331       -42.8941
  25   1.0000      -0.821860       -22.3639
  26   1.0000      -0.682638       -18.5755
  27   1.0000      -0.662408       -18.0250
  28   1.0000      -0.661530       -18.0011
  29   1.0000      -0.661140       -17.9905
  30   1.0000      -0.293116        -7.9761
  31   1.0000      -0.284212        -7.7338
  32   1.0000      -0.283796        -7.7225
  33   1.0000      -0.277663        -7.5556
  34   1.0000      -0.260824        -7.0974
  35   1.0000      -0.258096        -7.0231
  36   1.0000      -0.222973        -6.0674
  37   1.0000      -0.222757        -6.0615
  38   1.0000      -0.202851        -5.5199
  39   1.0000      -0.181712        -4.9446
  40   1.0000      -0.180860        -4.9214
  41   1.0000      -0.170012        -4.6263
  42   1.0000      -0.169868        -4.6223
  43   1.0000      -0.169322        -4.6075
  44   1.0000      -0.146496        -3.9864
  45   1.0000      -0.078394        -2.1332
  46   0.0000       0.084469         2.2985
  47   0.0000       0.085936         2.3384
  48   0.0000       0.115637         3.1467
  49   0.0000       0.128136         3.4868
  50   0.0000       0.168346         4.5809

                 SPIN DOWN ORBITALS
  NO   OCC          E(Eh)            E(eV)
   0   1.0000    -101.532534     -2762.8407
   1   1.0000    -101.532483     -2762.8393
   2   1.0000    -101.531629     -2762.8161
   3   1.0000    -101.531280     -2762.8066
   4   1.0000     -19.107882      -519.9519
   5   1.0000      -9.359416      -254.6827
   6   1.0000      -9.359384      -254.6818
   7   1.0000      -9.358503      -254.6578
   8   1.0000      -9.358175      -254.6489
   9   1.0000      -7.090545      -192.9435
  10   1.0000      -7.090522      -192.9429
  11   1.0000      -7.089615      -192.9182
  12   1.0000      -7.089305      -192.9098
  13   1.0000      -7.087330      -192.8560
  14   1.0000      -7.087291      -192.8550
  15   1.0000      -7.086403      -192.8308
  16   1.0000      -7.086078      -192.8220
  17   1.0000      -7.085822      -192.8150
  18   1.0000      -7.085776      -192.8138
  19   1.0000      -7.084930      -192.7907
  20   1.0000      -7.084591      -192.7815
  21   1.0000      -2.919278       -79.4376
  22   1.0000      -1.589004       -43.2390
  23   1.0000      -1.535863       -41.7929
  24   1.0000      -1.535727       -41.7892
  25   1.0000      -0.826187       -22.4817
  26   1.0000      -0.680677       -18.5221
  27   1.0000      -0.660933       -17.9849
  28   1.0000      -0.660131       -17.9631
  29   1.0000      -0.659680       -17.9508
  30   1.0000      -0.290178        -7.8961
  31   1.0000      -0.282121        -7.6769
  32   1.0000      -0.281797        -7.6681
  33   1.0000      -0.273554        -7.4438
  34   1.0000      -0.257377        -7.0036
  35   1.0000      -0.235930        -6.4200
  36   1.0000      -0.222187        -6.0460
  37   1.0000      -0.221860        -6.0371
  38   1.0000      -0.202719        -5.5163
  39   1.0000      -0.182022        -4.9531
  40   1.0000      -0.181023        -4.9259
  41   1.0000      -0.169869        -4.6224
  42   1.0000      -0.165379        -4.5002
  43   1.0000      -0.165134        -4.4935
  44   1.0000      -0.140403        -3.8205
  45   0.0000       0.056131         1.5274
  46   0.0000       0.097206         2.6451
  47   0.0000       0.098660         2.6847
  48   0.0000       0.125319         3.4101
  49   0.0000       0.136211         3.7065

MULLIKEN ATOMIC CHARGES AND SPIN POPULATIONS
--------------------------------------------
   0 W :    1.194828    0.980826
   1 Cl:   -0.439247    0.024669
   2 Cl:   -0.441557    0.025667
   3 Cl:   -0.441509    0.024917
   4 Cl:   -0.439852    0.024806
   5 O :   -0.432662   -0.080886
Sum of atomic charges         :   -1.0000000

LOEWDIN ATOMIC CHARGES AND SPIN POPULATIONS
-------------------------------------------
   0 W :   -0.350051    0.902279
   1 Cl:   -0.097219    0.039673
   2 Cl:   -0.100822    0.040826
   3 Cl:   -0.101109    0.039916
   4 Cl:   -0.097847    0.039839
   5 O :   -0.252951   -0.062533

  Mayer bond orders larger than 0.100000
B(  0-W ,  1-Cl) :   0.8823 B(  0-W ,  2-Cl) :   0.8786 B(  0-W ,  3-Cl) :   0.8781
B(  0-W ,  4-Cl) :   0.8814 B(  0-W ,  5-O ) :   2.1353

FINAL SINGLE POINT ENERGY     -1982.895751474174

DIPOLE MOMENT
-------------
                                X             Y             Z
Electronic contribution:      0.52452       2.98899      24.87696
Nuclear contribution   :     -0.51972      -2.96959     -24.73004
                        -----------------------------------------
Total Dipole Moment    :      0.00480       0.01940       0.14692
                        -----------------------------------------
Magnitude (a.u.)       :      0.14827
Magnitude (Debye)      :      0.37688

VIBRATIONAL FREQUENCIES
-----------------------

Scaling factor for frequencies =  1.000000000  (already applied!)

   0:         0.00 cm**-1
   1:         0.00 cm**-1
   2:         0.00 cm**-1
   3:         0.00 cm**-1
   4:         0.00 cm**-1
   5:         0.00 cm**-1
   6:        40.85 cm**-1
   7:       140.87 cm**-1
   8:       151.11 cm**-1
   9:       152.78 cm**-1
  10:       178.17 cm**-1
  11:       234.64 cm**-1
  12:       238.61 cm**-1
  13:       295.51 cm**-1
  14:       342.41 cm**-1
  15:       345.20 cm**-1
  16:       354.48 cm**-1
  17:      1055.36 cm**-1

IR SPECTRUM
-----------

 Mode   freq       eps      Int      T**2         TX        TY        TZ
       cm**-1   L/(mol*cm) km/mol    a.u.
----------------------------------------------------------------------------
  6:     40.85   0.000000    0.00  0.000000  (-0.000061 -0.000037 -0.000269)
  7:    140.87   0.000603    3.05  0.001337  (-0.000325  0.004757  0.036251)
  8:    151.11   0.000529    2.68  0.001094  ( 0.023980 -0.022527  0.003317)
  9:    152.78   0.000526    2.66  0.001073  ( 0.022261  0.023887 -0.002701)
 10:    178.17   0.000002    0.01  0.000003  ( 0.001745 -0.000611  0.000058)
 11:    234.64   0.000020    0.10  0.000027  ( 0.004144 -0.003147  0.000296)
 12:    238.61   0.000026    0.13  0.000034  (-0.004059 -0.004171  0.000524)
 13:    295.51   0.000001    0.01  0.000001  ( 0.000513 -0.000140 -0.001019)
 14:    342.41   0.026867  135.77  0.024486  (-0.121031 -0.098196  0.013958)
 15:    345.20   0.026219  132.50  0.023702  ( 0.097391 -0.118653  0.011767)
 16:    354.48   0.001802    9.11  0.001587  ( 0.004651  0.004151  0.039344)
 17:   1055.36   0.026165  132.23  0.007737  (-0.001410 -0.010366 -0.087334)

--------------------------
THERMOCHEMISTRY AT 298.15K
--------------------------

Temperature         ... 298.15 K
Pressure            ... 1.00 atm
Total Mass          ... 341.66 AMU

Throughout the following assumptions are being made:
  (1) The electronic state is orbitally nondegenerate
      but the spin degeneracy is treated
  (2) There are no thermally accessible electronically excited states
  (3) Hindered rotations indicated by low frequency modes are not
      treated as such but are treated as vibrations and this may
      cause some error
  (4) All equations used are the standard statistical mechanics
      equations for an ideal gas
  (5) All vibrations are strictly harmonic

freq.      40.85  E(vib)   ...       0.54
freq.     140.87  E(vib)   ...       0.41
freq.     151.11  E(vib)   ...       0.40
freq.     152.78  E(vib)   ...       0.40
freq.     178.17  E(vib)   ...       0.37
freq.     234.64  E(vib)   ...       0.32
freq.     238.61  E(vib)   ...       0.32
freq.     295.51  E(vib)   ...       0.27
freq.     342.41  E(vib)   ...       0.23
freq.     345.20  E(vib)   ...       0.23
freq.     354.48  E(vib)   ...       0.22
freq.    1055.36  E(vib)   ...       0.02

------------
INNER ENERGY
------------

The inner energy is: U= E(el) + E(ZPE) + E(vib) + E(rot) + E(trans)
    E(el)   - is the total energy from the electronic structure calculation
              = E(kin-el) + E(nuc-el) + E(el-el) + E(nuc-nuc)
    E(ZPE)  - the the zero temperature vibrational energy from the frequency calculation
    E(vib)  - the the finite temperature correction to E(ZPE) due to population
              of excited vibrational states
    E(rot)  - is the rotational thermal energy
    E(trans)- is the translational thermal energy

Summary of contributions to the inner energy U:
Electronic energy                ...  -1982.89575147 Eh
Zero point energy                ...      0.00804190 Eh       5.05 kcal/mol
Thermal vibrational correction   ...      0.00594879 Eh       3.73 kcal/mol
Thermal rotational correction    ...      0.00141627 Eh       0.89 kcal/mol
Thermal translational correction ...      0.00141627 Eh       0.89 kcal/mol
-----------------------------------------------------------------------
Total thermal energy                  -1982.87892824 Eh

Summary of corrections to the electronic energy:
(perhaps to be used in another calculation)
Total thermal correction                  0.00878133 Eh       5.51 kcal/mol
Non-thermal (ZPE) correction              0.00804190 Eh       5.05 kcal/mol
-----------------------------------------------------------------------
Total correction                          0.01682323 Eh      10.56 kcal/mol

--------
ENTHALPY
--------

The enthalpy is H = U + kB*T
                kB is Boltzmann's constant
Total free energy                 ...  -1982.87892824 Eh
Thermal Enthalpy correction       ...      0.00094421 Eh       0.59 kcal/mol
-----------------------------------------------------------------------
Total Enthalpy                    ...  -1982.87798403 Eh

Note: Only C1 symmetry has been detected, increase convergence thresholds
      if your molecule has a higher symmetry. Symmetry factor of 1.0 is
      used for the rotational entropy correction.

Note: Rotational entropy computed according to Herzberg
Infrared and Raman Spectra, Chapter V,1, Van Nostrand Reinhold, 1945
Point Group:  C1, Symmetry Number:   1
Rotational constants in cm-1:     0.037027     0.036676     0.023000

Vibrational entropy computed according to the QRRHO of S. Grimme
Chem.Eur.J. 2012 18 9955

-------
ENTROPY
-------

The entropy contributions are T*S = T*(S(el)+S(vib)+S(rot)+S(trans))
     S(el)   - electronic entropy
     S(vib)  - vibrational entropy
     S(rot)  - rotational entropy
     S(trans)- translational entropy
The entropies will be listed as multiplied by the temperature to get
units of energy

Electronic entropy                ...      0.00065446 Eh      0.41 kcal/mol
Vibrational entropy               ...      0.01084470 Eh      6.81 kcal/mol
Rotational entropy                ...      0.01440827 Eh      9.04 kcal/mol
Translational entropy             ...      0.02061134 Eh     12.93 kcal/mol
-----------------------------------------------------------------------
Final entropy term                ...      0.04651877 Eh     29.19 kcal/mol

In case the symmetry of your molecule has not been determined correctly
or in case you have a reason to use a different symmetry number we print
out the resulting rotational entropy values for sn=1,12 :
 --------------------------------------------------------
|  sn= 1 | S(rot)=       0.01440827 Eh      9.04 kcal/mol|
|  sn= 2 | S(rot)=       0.01375381 Eh      8.63 kcal/mol|
|  sn= 3 | S(rot)=       0.01337098 Eh      8.39 kcal/mol|
|  sn= 4 | S(rot)=       0.01309936 Eh      8.22 kcal/mol|
|  sn= 5 | S(rot)=       0.01288867 Eh      8.09 kcal/mol|
|  sn= 6 | S(rot)=       0.01271652 Eh      7.98 kcal/mol|
|  sn= 7 | S(rot)=       0.01257098 Eh      7.89 kcal/mol|
|  sn= 8 | S(rot)=       0.01244490 Eh      7.81 kcal/mol|
|  sn= 9 | S(rot)=       0.01233369 Eh      7.74 kcal/mol|
|  sn=10 | S(rot)=       0.01223421 Eh      7.68 kcal/mol|
|  sn=11 | S(rot)=       0.01214422 Eh      7.62 kcal/mol|
|  sn=12 | S(rot)=       0.01206207 Eh      7.57 kcal/mol|
 --------------------------------------------------------

-------------------
GIBBS FREE ENERGY
-------------------

The Gibbs free energy is G = H - T*S

Total enthalpy                    ...  -1982.87798403 Eh
Total entropy correction          ...     -0.04651877 Eh    -29.19 kcal/mol
-----------------------------------------------------------------------
Final Gibbs free energy         ...  -1982.92450280 Eh

For completeness - the Gibbs free energy minus the electronic energy
G-E(el)                           ...     -0.02875133 Eh    -18.04 kcal/mol

                             ****ORCA TERMINATED NORMALLY****
TOTAL RUN TIME: 0 days 0 hours 5 minutes 2 seconds 905 msec
