                         Program Version 5.0.4 -  RELEASE  -
|  1> # avogadro generated ORCA file
|  2> # H6N2Ag | Geometry Optimization
|  3> #
|  4> ! Opt PBE0 def2-TZVP
|  5>
|  6> %maxcore 1820
|  7>
|  8> %pal
|  9>    nprocs 4
| 10> end
| 11> * xyz 1 1
| 12>    Ag     3.403000    0.500000    0.000000
| 13>    N      2.536900    0.000000    0.000000
| 14>    H      2.000000   -0.310000    0.000000
| 15>    H      2.226900    0.536900    0.000000
| 16>    H      2.846900   -0.536900    0.000000
| 17>    N      4.269000    0.000000    0.000000
| 18>    H      4.805900   -0.310000    0.000000
| 19>    H      4.579000    0.536900    0.000000
| 20>    H      3.959000   -0.536900    0.000000
| 21> *
| 22>
| 23>
| 24>
| 25>                          ****END OF INPUT****
 Total Charge           Charge          ....    1
 Multiplicity           Mult            ....    1
 Number of Electrons    NEL             ....   38
 Basis Dimension        Dim             ....  138

ORBITAL ENERGIES
----------------

  NO   OCC          E(Eh)            E(eV)
   0   2.0000     -14.922261      -406.0554
   1   2.0000     -14.922101      -406.0510
   2   2.0000      -4.598387      -125.1285
   3   2.0000      -3.449623       -93.8690
   4   2.0000      -3.142099       -85.5009
   5   2.0000      -3.009417       -81.8904
   6   2.0000      -1.732546       -47.1450
   7   2.0000      -1.641875       -44.6777
   8   2.0000      -1.568133       -42.6711
   9   2.0000      -1.472742       -40.0753
  10   2.0000      -1.383718       -37.6529
  11   2.0000      -1.149868       -31.2895
  12   2.0000      -1.144627       -31.1469
  13   2.0000      -1.003977       -27.3196
  14   2.0000      -0.745872       -20.2962
  15   2.0000      -0.640997       -17.4424
  16   2.0000      -0.623055       -16.9542
  17   2.0000      -0.390946       -10.6382
  18   2.0000      -0.387926       -10.5560
  19   0.0000      -0.197510        -5.3745
  20   0.0000      -0.189459        -5.1554
  21   0.0000      -0.174704        -4.7539
  22   0.0000      -0.151471        -4.1217
  23   0.0000      -0.084508        -2.2996

MULLIKEN ATOMIC CHARGES
-----------------------
   0 Ag:    3.674703
   1 N :   -0.925714
   2 H :   -0.203121
   3 H :   -0.217559
   4 H :    0.009289
   5 N :   -0.926098
   6 H :   -0.203134
   7 H :   -0.217624
   8 H :    0.009259
Sum of atomic charges:    1.0000000

LOEWDIN ATOMIC CHARGES
----------------------
   0 Ag:    3.767034
   1 N :   -1.136537
   2 H :   -0.043978
   3 H :   -0.133546
   4 H :   -0.069253
   5 N :   -1.136897
   6 H :   -0.043981
   7 H :   -0.133585
   8 H :   -0.069257

  Mayer bond orders larger than 0.100000
B(  0-Ag,  1-N ) :   0.6725 B(  0-Ag,  5-N ) :   0.6731 B(  1-N ,  2-H ) :   0.9375
B(  1-N ,  3-H ) :   1.0422 B(  1-N ,  4-H ) :   1.2022 B(  1-N ,  8-H ) :  -0.1381
B(  4-H ,  5-N ) :  -0.1381 B(  5-N ,  6-H ) :   0.9374 B(  5-N ,  7-H ) :   1.0422
B(  5-N ,  8-H ) :   1.2022

FINAL SINGLE POINT ENERGY      -251.965534913055
FINAL SINGLE POINT ENERGY      -253.218497393158
FINAL SINGLE POINT ENERGY      -254.284142164497
FINAL SINGLE POINT ENERGY      -255.180908868834
FINAL SINGLE POINT ENERGY      -255.937663353829
FINAL SINGLE POINT ENERGY      -256.576470915572
FINAL SINGLE POINT ENERGY      -257.115396168047
FINAL SINGLE POINT ENERGY      -257.569334028342
FINAL SINGLE POINT ENERGY      -257.950724435507
FINAL SINGLE POINT ENERGY      -258.270140411087
FINAL SINGLE POINT ENERGY      -259.708546695981
FINAL SINGLE POINT ENERGY      -259.708640883556
FINAL SINGLE POINT ENERGY      -259.708704147654
FINAL SINGLE POINT ENERGY      -259.708745481027
FINAL SINGLE POINT ENERGY      -259.708768100512
FINAL SINGLE POINT ENERGY      -259.708782023672
FINAL SINGLE POINT ENERGY      -259.708796968145
FINAL SINGLE POINT ENERGY      -259.708815899197
FINAL SINGLE POINT ENERGY      -259.708838814973

CARTESIAN COORDINATES (ANGSTROEM)
---------------------------------
  Ag     3.402953    1.386504   -0.000000
  N      1.255902   -0.171318   -0.000000
  H      0.366156   -0.643759   -0.000000
  H      1.193042    0.829117    0.000000
  H      2.060915   -0.767244    0.000000
  N      5.550010   -0.171341    0.000000
  H      6.439763   -0.643771    0.000000
  H      5.612854    0.829092   -0.000000
  H      4.745005   -0.767280   -0.000000

FINAL SINGLE POINT ENERGY      -259.708869632388

DIPOLE MOMENT
-------------
                                X             Y             Z
Electronic contribution:     -0.00011      30.46363       0.00001
Nuclear contribution   :      0.00005     -31.05813      -0.00000
                        -----------------------------------------
Total Dipole Moment    :     -0.00005      -0.59449       0.00001
                        -----------------------------------------
Magnitude (a.u.)       :      0.59449
Magnitude (Debye)      :      1.51108

Rotational constants in cm-1:     0.261319     0.105158     0.074984
Rotational constants in MHz :  7834.147249  3152.550158  2247.949610

                             ****ORCA TERMINATED NORMALLY****
TOTAL RUN TIME: 0 days 0 hours 6 minutes 26 seconds 839 msec
