                         Program Version 5.0.4 -  RELEASE  -
|  1> # input to generate an atomic fitting density for Ag
|  2> # this file is used internally by ORCA
|  3> #
|  4> # atomic ground state (S=2): 1s2 2s2 2p6 3s2 3p6 4s2 3d10 4p6 5s2 4d9
|  5> #
|  6> ! RHF AllowRHF def2-SVP def2/J  NoMulliken NoLoewdin NoMayer NoPrintMOs
|  7>
|  8> %output print[p_atomdensfit] 2 end
|  9>
| 10> %scf
| 11>   guess hcore
| 12>   maxiter 1000
| 13>   maxdisk 500000
| 14>   SCFMode Conventional
| 15>   lshift 1.000000
| 16>   hftyp rohf
| 17>   rohf_case sahf
| 18>   rohf_numop   2
| 19>   rohf_norb[1] 5
| 20>   rohf_nel[1]  9
| 21> end
| 22>
| 23> %basis
| 24>   NewECP 47
| 25>     N_core 28
| 26>     lmax f
| 27>     s 4
| 28>       1      13.1300000000    255.1393645000  2
| 29>       2       6.5100000000     36.8661215000  2
| 30>       3      14.2200000000     33.6899201000  2
| 31>       4       7.1100000000      5.5311202000  2
| 32>     p 4
| 33>       1      11.7400000000    182.1818687000  2
| 34>       2       6.2000000000     30.3577515000  2
| 35>       3      14.2200000000     33.6899201000  2
| 36>       4       7.1100000000      5.5311202000  2
| 37>     d 4
| 38>       1      10.2100000000     73.7192609000  2
| 39>       2       4.3800000000     12.5021171000  2
| 40>       3      14.2200000000     33.6899201000  2
| 41>       4       7.1100000000      5.5311202000  2
| 42>     f 2
| 43>       1      14.2200000000    -33.6899201000  2
| 44>       2       7.1100000000     -5.5311202000  2
| 45>   end
| 46>   NewGTO 47
| 47>     s 2
| 48>      1      19.0000000000     -0.8594685537
| 49>      2      15.4281999330      1.8465563920
| 50>     s 1
| 51>      1       6.0553507268      1.0000000000
| 52>     s 1
| 53>      1       1.4162368935      1.0000000000
| 54>     s 1
| 55>      1       0.6175863586      1.0000000000
| 56>     s 1
| 57>      1       0.1047419743      1.0000000000
| 58>     s 1
| 59>      1       0.0376851063      1.0000000000
| 60>     p 4
| 61>      1      13.1881801800      0.0769824523
| 62>      2       7.7952789138     -0.2845084432
| 63>      3       2.0351571912      0.5653800140
| 64>      4       0.9809391484      0.5721355592
| 65>     p 1
| 66>      1       0.4445117996      1.0000000000
| 67>     p 1
| 68>      1       0.1300000000      1.0000000000
| 69>     p 1
| 70>      1       0.0412000000      1.0000000000
| 71>     d 4
| 72>      1      25.7843973510      0.0057358549
| 73>      2      11.3966367550     -0.0208937342
| 74>      3       2.7345581361      0.3879491828
| 75>      4       1.1873583605      0.6824815392
| 76>     d 1
| 77>      1       0.4731691057      1.0000000000
| 78>     d 1
| 79>      1       0.1674601799      1.0000000000
| 80>   end
| 81>   NewAuxGTO 47
| 82>     S 1
| 83>      1 1310.72 1.0
| 84>     S 1
| 85>      1  655.36 1.0
| 86>     S 1
| 87>      1  327.68 1.0
| 88>     S 1
| 89>      1  163.84 1.0
| 90>     S 1
| 91>      1   81.82 1.0
| 92>     S 1
| 93>      1   40.96 1.0
| 94>     S 1
| 95>      1   20.48 1.0
| 96>     S 1
| 97>      1   10.24 1.0
| 98>     S 1
| 99>      1    5.12 1.0
|100>     S 1
|101>      1    2.56 1.0
|102>     S 1
|103>      1    1.28 1.0
|104>     S 1
|105>      1    0.64 1.0
|106>     S 1
|107>      1    0.32 1.0
|108>     S 1
|109>      1    0.16 1.0
|110>     S 1
|111>      1    0.08 1.0
|112>     S 1
|113>      1    0.04 1.0
|114>     S 1
|115>      1    0.02 1.0
|116>     S 1
|117>      1    0.01 1.0
|118>   end
|119> end
|120>
|121> * xyz 0 2
|122> 47  0.0 0.0 0.0
|123> *
|124>
|125>
|126>                          ****END OF INPUT****

CARTESIAN COORDINATES (ANGSTROEM)
---------------------------------
  Ag     0.000000    0.000000    0.000000

 Total Charge           Charge          ....    0
 Multiplicity           Mult            ....    2
 Number of Electrons    NEL             ....   19
 Basis Dimension        Dim             ....   33

ORBITAL ENERGIES
----------------

  NO   OCC          E(Eh)            E(eV)
   0   2.0000      -4.471537      -121.6767
   1   2.0000      -2.913353       -79.2764
   2   2.0000      -2.911439       -79.2243
   3   2.0000      -2.910625       -79.2021
   4   2.0000      -0.627494       -17.0750
   5   1.8000      -0.632677       -17.2160
   6   1.8000      -0.631277       -17.1779
   7   1.8000      -0.628681       -17.1073
   8   1.8000      -0.622562       -16.9408
   9   1.8000      -0.273300        -7.4369
  10   0.0000       0.027131         0.7383
  11   0.0000       0.028003         0.7620
  12   0.0000       0.028371         0.7720
  13   0.0000       0.137710         3.7473
  14   0.0000       0.258043         7.0217

FINAL SINGLE POINT ENERGY      -145.992255011177

DIPOLE MOMENT
-------------
                                X             Y             Z
Electronic contribution:     -0.00000      -0.00000      -0.00000
Nuclear contribution   :      0.00000       0.00000       0.00000
                        -----------------------------------------
Total Dipole Moment    :     -0.00000      -0.00000      -0.00000
                        -----------------------------------------
Magnitude (a.u.)       :      0.00000
Magnitude (Debye)      :      0.00000

Rotational constants in cm-1:     0.000000     0.000000     0.000000
Rotational constants in MHz :     0.000000     0.000000     0.000000

                             ****ORCA TERMINATED NORMALLY****
TOTAL RUN TIME: 0 days 0 hours 0 minutes 0 seconds 402 msec
